<?xml version="1.0"?>
<VTKFile type="UnstructuredGrid"  version="0.1"  >
<UnstructuredGrid>
<Piece  NumberOfPoints="4041" NumberOfCells="7528">
<Points>
<DataArray  type="Float64"  NumberOfComponents="3"  format="ascii">56818.26305072499 -2506106.549119427 0  42243.18265024776 -2506857.639328673 0  29021.82503270428 -2504261.924403077 0  16550.12421826219 -2499855.084024415 0  4655.032296222308 -2495697.422200306 0  -7261.504300492456 -2494323.621393709 0  -18625.22209185599 -2493319.244519799 0  -29276.70419068305 -2491316.102597814 0  -39371.58555411869 -2489334.610554085 0  -48872.2887625367 -2487148.664179707 0  -56975.1983834749 -2482507.606906727 0  -64856.00389190487 -2478322.793323702 0  -73044.09528138349 -2475914.932075506 0  -80956.89453806292 -2474104.027428716 0  -88297.01099239565 -2471721.028140273 0  -95122.34251075231 -2468979.68610345 0  -102033.0976717825 -2467743.453790383 0  -108667.8585333195 -2467170.433637599 0  -114915.9932325953 -2465984.168528114 0  -120845.1804641294 -2464950.543945178 0  -126578.8706923529 -2464806.636550912 0  -131905.6385080613 -2465871.725308503 0  -137064.687279085 -2466513.84235653 0  -141931.6894689468 -2467114.408289441 0  -146558.2518132151 -2467929.3528441 0  -150981.1782706213 -2468467.119438711 0  -155134.7485423184 -2469150.351715567 0  -159045.2990449393 -2470116.702174883 0  -162783.5633652424 -2470995.874606837 0  -166363.671458142 -2471566.36883454 0  -169791.2094945778 -2472089.92531744 0  -173066.7170363216 -2472372.644023074 0  -176180.8272511644 -2472318.589143077 0  -179127.4549433015 -2471957.228690146 0  -181904.9538427488 -2471408.024018189 0  -184523.0000848745 -2470783.818157519 0  -187005.1824092157 -2470191.610932166 0  -189371.4710935979 -2469697.441393066 0  -191637.2486669229 -2469286.956885205 0  -193813.7840475813 -2468932.72635197 0  -195894.9751436561 -2468622.32397195 0  -197860.5122662469 -2468356.257574914 0  -199699.8496405249 -2468131.239090017 0  -201484.3799547247 -2467852.578310028 0  -203235.1081836333 -2467477.120196301 0  -204148.4039899458 -2468231.328417643 0  -204779.4006070163 -2469477.772737175 0  -206226.3182912302 -2469895.043213626 0  -207209.0484690831 -2471050.353437294 0  -206633.7342709575 -2472198.562901576 0  -206689.2205673746 -2473699.963528 0  -207439.3355646643 -2474578.344737141 0  -208686.077261504 -2475226.075148567 0  -208911.224951669 -2476610.681926033 0  -209786.4032029276 -2477610.304923216 0  -210530.8593792382 -2478701.972600761 0  -211347.3117581898 -2479598.487775704 0  -212436.1994711102 -2480321.158208149 0  -211661.3579813032 -2481227.303558039 0  -212339.4592376566 -2482164.498648201 0  -213368.6786835724 -2482893.361192783 0  -213823.9242874084 -2483849.45466838 0  -213959.3389029546 -2484975.339969706 0  -214654.5105929325 -2485857.893728198 0  -214924.9636302208 -2486897.99052352 0  -215387.1968803907 -2487861.977722809 0  -215850.8935184235 -2488606.845677634 0  -216850.3002300822 -2488718.42607849 0  -217786.1788875306 -2488773.814743428 0  -218655.6596527224 -2488960.510713411 0  -219459.2999881662 -2489050.843080118 0  -220215.8572609511 -2489415.86959818 0  -220949.8949656503 -2489578.990779826 0  -221671.8184129359 -2489638.232601265 0  -222360.8395383537 -2489613.467831609 0  -222996.7344008797 -2489634.843068176 0  -223565.7511683207 -2489892.292788903 0  -224056.7930683517 -2490349.213746534 0  -224487.3350267241 -2490843.9928667 0  -224917.776609416 -2491084.259717198 0  -225385.9512610532 -2490939.6600004 0  -225871.0057115029 -2490692.412192973 0  -226347.6588061106 -2490593.974681439 0  -226807.4764604085 -2490599.669749292 0  -227247.6549526961 -2490611.50259405 0  -227666.4916287626 -2490611.945233863 0  -228063.1258911103 -2490614.649470013 0  -228437.2792766626 -2490619.621715965 0  -228789.0148414041 -2490611.440145575 0  -229118.6979285175 -2490579.661792117 0  -229427.7721220893 -2490551.675512337 0  -229718.2857126026 -2490575.632414152 0  -229992.0195062686 -2490686.778079117 0  -230250.5004979436 -2490869.571547285 0  -230495.0197162354 -2491060.637110347 0  -230726.6693575185 -2491208.220350035 0  -230946.3810285181 -2491273.695406383 0  -231155.1727872346 -2491240.482369016 0  -231354.5763814056 -2491151.916669652 0  -231546.3204437924 -2491058.490694704 0  -231732.1881906295 -2491000.058362073 0  -231914.0081666783 -2491009.477644776 0  -232092.2357485933 -2491100.02032591 0  -232263.9691545902 -2491246.068674924 0  -232425.9547039263 -2491419.407037552 0  -232574.5133449228 -2491597.360932464 0  -232704.8009038861 -2491776.874946281 0  -232810.4395700074 -2491960.360275827 0  -232883.2341085825 -2492150.113137818 0  -232912.9947800571 -2492348.349496039 0  -232888.518304726 -2492556.97189473 0  -232809.3398841225 -2492774.886297886 0  -232684.053466982 -2492998.772055723 0  -232523.4050637269 -2493224.618723386 0  -232341.870709994 -2493446.437774289 0  -232149.8049278373 -2493655.556957558 0  -231926.4623607639 -2493840.270994475 0  -231648.985213168 -2493990.591921999 0  -231333.5089516883 -2494114.232577013 0  -231011.2867655237 -2494226.909041754 0  -230716.5565724511 -2494352.83929517 0  -230448.2156366009 -2494566.308324145 0  -230174.691868224 -2494859.203920859 0  -229854.386277046 -2495099.245907737 0  -229456.0482055206 -2495181.232778375 0  -228998.936468587 -2495162.974046715 0  -228517.5500007842 -2495146.384058104 0  -228039.7566338337 -2495203.170887594 0  -227590.3999753736 -2495397.522350929 0  -227184.981929657 -2495766.19833274 0  -226750.2922870113 -2496024.476637892 0  -226213.5702095754 -2495994.660255382 0  -225600.3011662167 -2496052.877603892 0  -224958.9944484101 -2496261.85032066 0  -224327.7512929673 -2496330.814093316 0  -223631.5812784273 -2496280.649748585 0  -222879.2998883054 -2496301.667794817 0  -222254.9783848506 -2496634.523083093 0  -221626.1319051044 -2497065.090720322 0  -220761.0581340182 -2497211.459477382 0  -219968.5459241767 -2497393.939598728 0  -220203.5455070361 -2497899.480461085 0  -220855.9220298611 -2498603.237242675 0  -221131.2246077028 -2499252.862384938 0  -221774.7122121719 -2499660.862433717 0  -222479.7107982228 -2499760.827055608 0  -223033.1183148655 -2499984.859791101 0  -223490.2596104009 -2500462.200395656 0  -224062.3926326139 -2500600.027660071 0  -224541.1956214423 -2500228.786139573 0  -224949.7350095029 -2499888.083019758 0  -225341.0500730075 -2500225.130315016 0  -225757.1423292761 -2500548.432558256 0  -226180.3939651776 -2500786.080344201 0  -226538.177938963 -2501153.984901021 0  -226773.495284157 -2501569.98568693 0  -227039.0304909855 -2501911.932245616 0  -227468.9595916819 -2502129.814972885 0  -227798.6047508129 -2502389.299855465 0  -227884.9238541838 -2502832.388358992 0  -228126.2989976085 -2503276.196050428 0  -227861.5342855403 -2503623.445554566 0  -227372.9304734626 -2503907.390885711 0  -226957.5853764467 -2504175.647480549 0  -226606.2579015691 -2504483.304832757 0  -226161.0056828749 -2504866.856449728 0  -225815.0711509458 -2505316.314749662 0  -225762.8994468044 -2505806.079859471 0  -225997.7594286802 -2506242.915512673 0  -226398.1360973342 -2506619.148825204 0  -226765.9297719086 -2507036.084494513 0  -226845.4953021393 -2507500.960872594 0  -226465.0153921999 -2507962.631785552 0  -225845.8228635425 -2508243.541008709 0  -225251.6156104354 -2508190.021993677 0  -224690.1793840567 -2507897.641923884 0  -224100.3548492745 -2507553.624348171 0  -223414.5727227449 -2507371.21363621 0  -222654.4265297953 -2507276.075847208 0  -221912.0382560525 -2507297.337862614 0  -221266.9189332082 -2507785.266418245 0  -220681.0921292723 -2508353.609471263 0  -220062.6686429494 -2509000.329523423 0  -219236.8308144344 -2509174.655190252 0  -218255.6568359406 -2509399.603364403 0  -218572.4131759723 -2510066.725015923 0  -218861.5230561548 -2510964.91864626 0  -218883.3556157417 -2511846.204517832 0  -219353.8346553762 -2512525.731451487 0  -219963.2685976659 -2513082.42119797 0  -220488.7752431028 -2513679.96717993 0  -220885.2380172826 -2514382.263808274 0  -220990.1132767769 -2515108.665935786 0  -221485.0382534687 -2515632.998891791 0  -222155.0186764667 -2516036.139659067 0  -222390.5819874348 -2516597.550678985 0  -221683.5075769027 -2517109.541916781 0  -221049.1691573458 -2517587.936233334 0  -220341.3916149238 -2518020.204995572 0  -219495.2331410376 -2518369.688367899 0  -219546.7035698217 -2519131.218151119 0  -219685.2088385221 -2520038.091014113 0  -219723.4857113709 -2520890.499102236 0  -219511.8253665795 -2521706.050384868 0  -218768.9497051224 -2522318.273173176 0  -218062.3835558011 -2522951.471679174 0  -217792.1932780886 -2523832.754628343 0  -217721.1829300973 -2524802.156087346 0  -217105.5823664274 -2525632.89503949 0  -216114.3489158486 -2526130.198485046 0  -215762.8823642595 -2526977.667966621 0  -215624.0210213385 -2528047.606007989 0  -215626.57696477 -2529136.754249504 0  -215068.1955778405 -2530004.876344503 0  -214353.5819060722 -2530902.512838067 0  -213458.5631825881 -2531647.245829566 0  -212582.3066935458 -2532532.655828057 0  -211601.1993616105 -2533281.698502241 0  -210230.8203599756 -2533492.702960313 0  -209359.9819486135 -2532733.353591639 0  -207963.7301089823 -2532402.039407601 0  -207461.9620998055 -2533726.636299287 0  -206743.678788939 -2535012.373417936 0  -207794.6479248811 -2535697.474151645 0  -208706.2824926935 -2536681.47128792 0  -208662.8240783605 -2538140.018106792 0  -209359.9957095342 -2539157.350742796 0  -209716.6789857079 -2540401.743356431 0  -208811.4519281083 -2541468.645140812 0  -209077.7529802741 -2542648.334750617 0  -210420.4603172865 -2542562.067677911 0  -211621.9917404423 -2542541.993928391 0  -212754.33587808 -2543120.703356035 0  -212519.6312691136 -2544241.062718421 0  -213084.8685374894 -2545195.129669076 0  -214049.5779914909 -2545637.606566725 0  -215070.0904746166 -2545977.323497721 0  -215634.1102203288 -2546825.493334641 0  -215621.16885731 -2547930.190942091 0  -214942.2606588054 -2548830.648553029 0  -
[...]
<CellData  Scalars="f_477"> 
<DataArray  type="Float64"  Name="f_477"  format="ascii">1.6500605038039082e-03   1.5134032055366334e-04   1.7942523817131805e-02   1.7876589400951333e-02   2.1797388766861536e-07   0.0000000000000000e+00   3.7071723222049338e-02   1.6539787121600977e-01   3.6124809234039816e-02   1.6747871881706020e-01   5.6961442314305458e-02   2.3602688953061093e-01   1.8613927339257388e-01   1.8742529855864795e-01   1.6818566453378092e-01   5.7957756339680422e-02   1.2782133297725518e-01   1.2533743417018658e-01   6.0565878650122106e-02   1.5073590142633442e-01   1.5477067181194018e-01   2.3544268794410353e-01   2.6561937603298003e-01   6.4710096481937790e-02   1.5124185960579678e-01   6.5625656623830436e-02   1.5794321098982217e-01   2.4046322792489028e-02   6.9861738312181889e-04   6.6338088819975494e-04   1.9397308615239507e-02   1.8004714522709495e-01   1.5379049733047123e-01   1.5424954154024770e-01   1.5608728281470771e-01   6.1190082401192225e-02   1.0776172756127644e-01   2.3889871280085587e-01   1.2027477148584187e-01   1.3815128928452389e-01   2.0937077375836381e-02   1.2271454363696099e-01   2.3827876965134942e-01   2.0363513812502426e-02   1.1749792902647890e-01   1.6781546131610212e-01   1.6482353124914736e-01   2.5922838537998977e-01   7.9876305060341102e-02   1.8606208629893806e-01   2.0689195899186569e-01   2.1389457844435156e-01   2.1847732963034155e-01   2.3858731153195248e-01   2.4162524105580938e-01   2.4666699509503259e-02   2.7843387945473808e-01   1.2216222329308454e-01   1.1861407954672243e-01   6.1804649537626592e-02   6.4994622085659440e-02   1.6355417094723107e-01   1.7134223233406504e-01   2.4638067294093732e-01   1.9239995156633910e-01   2.0778890215645824e-03   2.0301129871960516e-03   1.9028940394550956e-01   1.8254981548708197e-02   2.1909269775138207e-01   2.1593518138056900e-01   2.2102387661807282e-01   1.4748564468931198e-03   5.0270911370136090e-02   2.2906887650929941e-01   2.6219520471896196e-01   2.7574398983081727e-01   2.4457613854006838e-01   1.8697127634435314e-03   1.5920512892568253e-01   2.4507623503686898e-01   2.5422551764377282e-01   1.9441124760748332e-01   1.6342655086417082e-01   1.6615364758892712e-01   1.6631929479891289e-01   1.9477649551165089e-02   8.1952600449762696e-05   1.3292108891705923e-01   2.3637162050531679e-01   6.7121276068340596e-03   5.8378588271554262e-03   1.4924346717114956e-01   1.9728633460938819e-01   2.3011249759191366e-01   1.4709672072136123e-01   4.0461461894944629e-02   1.4564570380788727e-01   2.3690085912609210e-01   1.6876426312206241e-01   1.4736384125799981e-01   1.7823575726508101e-01   1.7306016151002535e-01   1.4916181505431858e-01   1.7060502164407557e-01   1.6943476154942735e-01   1.6585366609743432e-01   1.6887983766186018e-01   1.6966258099244699e-01   1.2785044217150751e-01   1.3233248724686963e-01   2.1660752636200702e-02   2.2633919818706077e-02   1.0382641223782713e-01   0.0000000000000000e+00   1.0320815396533903e-01   5.9072097064414922e-02   5.6560889486267744e-02   1.6321349146081113e-01   1.6060610876158457e-01   1.6027525895219233e-01   1.2844793711724692e-01   1.2609507819786561e-01   1.3027338761000939e-01   7.3320934258388787e-02   1.4843993076217696e-01   7.5853928308449559e-02   1.8786999612938249e-01   1.6544810927353673e-01   1.6629680941666314e-01   1.2658592404052033e-01   1.3200225514567232e-01   6.8480034731910411e-03   6.2130336999667891e-02   1.5539107672680058e-01   1.7954472997922644e-01   1.5292783215998645e-01   1.4364839059960072e-01   1.5306358277167875e-01   2.7844589010428402e-03   2.9870143233734017e-02   2.8861186378714293e-02   4.9219952942143881e-02   6.1474623799299397e-02   1.5487574920590250e-03   1.3332271899088105e-01   1.3537173596101015e-01   2.3324517784018586e-01   1.6399244083230186e-01   1.6325496534367878e-01   1.5457618563311791e-02   4.3535437548347932e-05   2.2070103116768094e-01   2.2246712226356258e-01   2.5419532708162612e-01   1.6276330335923607e-02   2.4691001072076255e-01   4.2927298174651074e-02   2.2834577997938050e-03   2.1508652303247411e-03   1.1208940215150855e-01   7.3521002421266357e-02   1.0686124641500119e-01   1.2722862169395904e-01   6.2596295177957714e-02   1.4440659073999806e-01   1.3763810529656326e-01   2.2606551682150131e-01   2.1555174087688733e-01   2.0686887097302531e-01   3.6689477144109822e-04   1.6086303983922487e-01   1.5684658936254922e-01   3.3079867802686608e-04   1.2879329655441016e-03   1.6332627851170004e-03   1.7729111072253668e-04   2.1714699513138308e-01   1.4881436474976045e-01   2.4972878904644225e-02   8.1012905859969259e-02   2.9290738726071290e-02   3.0807279578287194e-01   2.9838738177008810e-02   2.8303781977826285e-02   2.9455233589251114e-02   1.3779212525554854e-01   7.2690239818390173e-04   8.3943936829357510e-02   6.8606857885366028e-04   1.6155609965803613e-01   1.1807098982356473e-01   1.5809325990448822e-01   7.8981812152215974e-02   8.0405036874719296e-02   7.7095536811895737e-02   5.0676468363356396e-02   2.7708043761387324e-01   7.5531055250322596e-02   2.1546824774053105e-01   2.1165355978619899e-01   2.1379403421287341e-01   2.8076163929468245e-01   2.1221275636416859e-01   1.7858525110449948e-02   7.7527774953110914e-03   2.1586961959077861e-01   1.8705205373669073e-01   1.5731694029821280e-01   1.1154786245450342e-04   1.6055373931658440e-01   1.5544336924322308e-01   1.4028188735883529e-01   1.3791590712152685e-01   1.8038219282056883e-01   1.5310722261648910e-01   7.9252585881100443e-02   1.0174339649279118e-01   8.3374467120576749e-04   3.2788296867273847e-04   6.2795372760031623e-02   1.9041014272654251e-04   1.8140425264322572e-03   1.9081817066573530e-03   1.4500770267933880e-03   6.2820490650938005e-02   1.5068956886782978e-01   2.3564340533167918e-01   1.6348096582995753e-01   8.9960714894942964e-02   2.3392084734315902e-01   7.2555412932420127e-02   2.4431244563435281e-01   8.8299111952513873e-02   1.4175346595155355e-01   1.3997550400507583e-01   6.8916314420556291e-02   0.0000000000000000e+00   9.6403350989249607e-07   1.6129552415673715e-01   1.6346697128277621e-01   1.4629388994508030e-01   1.4881295132662820e-01   1.6659550570520970e-01   1.5310547679242215e-01   1.0195388356415397e-01   9.3422828239141442e-02   1.0602499537191788e-01   1.0118779750134343e-01   1.1725936485644267e-01   1.0678957126930873e-01   1.3544985871042070e-01   2.2926091860340853e-01   2.2984156888292887e-01   2.6028089039771751e-01   1.4274672453214016e-01   2.6387536551219959e-01   2.2382892196976051e-01   2.2092620674587710e-01   1.2958443528953378e-01   1.7937038447433198e-01   2.0188943315210095e-01   1.8169276349804123e-01   2.0101527935772404e-01   5.6680739620158585e-02   0.0000000000000000e+00   2.8562235561055696e-05   2.6798256632388353e-02   6.9251011880976810e-03   2.6888783810443340e-01   2.7322329858928067e-02   5.8683674650507524e-03   1.4667064554480423e-03   2.7812691964856762e-01   2.7946026133686663e-01   2.2580469963848870e-01   2.1213210386724288e-01   2.0976422042067450e-01   1.5685315331056263e-01   2.1164126635635200e-01   2.3145014730446381e-01   6.5469028713471503e-02   2.3081149815251800e-01   1.9079427927683773e-01   1.0742079652340422e-01   2.0104478119023139e-01   2.2773917428202389e-01   2.0422693197430952e-01   1.4940942053570649e-01   1.3329904720927047e-01   1.5380729096473109e-01   1.1067929467508028e-01   1.1355683346383037e-01   1.1631838213065654e-01   1.1449046798465339e-01   1.2146460373396978e-01   1.0545217038401919e-01   1.2465672573687572e-01   7.0021779650877979e-03   1.0215887436024086e-01   2.4175562019221980e-01   2.1410704738887026e-01   2.1572587535272827e-01   4.6272542456124444e-03   4.3531795113235433e-02   2.1035874924633396e-01   2.1221118605222111e-01   8.9827377495573429e-02   9.2281531757667460e-04   1.7242800642401652e-03   1.3252449307480421e-02   1.7260249405566827e-01   1.3971993036292873e-01   1.9279074789130823e-01   1.3783871657607782e-01   1.5236990374401257e-01   1.4604613814062933e-01   1.5011970297399024e-01   1.3788438614501797e-01   1.3425294286590952e-01   1.7185680758472818e-01   1.2960505317004348e-01   1.5212485166328432e-01   2.1695630961493975e-01   1.6150728467333220e-01   1.5685749688195152e-01   1.6965854838518674e-01   1.7315508836119020e-01   2.9130923723797086e-03   1.7093689928858458e-01   1.3468258945949810e-01   1.7690857731913082e-01   2.1157239993862761e-01   2.0401601756377971e-01   5.4544747258431968e-02   5.7383590128663148e-02   2.1572143937402347e-01   2.5752885311650692e-03   2.2990634410329694e-01   2.3463201336949352e-01   8.6548733010442065e-04   1.0728378572484310e-03   2.6997571651364838e-01   2.6628692084445155e-01   2.3497567480267011e-02   1.4766234358077693e-01   1.1968378333927020e-02   2.4054051814745217e-01   2.3863757576315464e-01   2.2261448120646862e-01   2.1929689162457330e-01   1.7640887530688565e-01   1.5193401482154828e-01   1.5783513746662306e-01   1.5465116124464084e-01   1.6634133741836632e-01   1.7163089061513534e-01   2.4265570455352933e-01   3.6686956872524677e-05   1.9147945935277277e-01   4.4451639718801519e-02   6.8056745338160385e-03   1.8390319885391868e-01   1.8710124954434923e-01   7.5457491021302774e-03   3.6735347610295281e-02   2.4743537333645786e-03   2.9401883225504783e-03   2.3396652687119243e-01   2.3186293071210443e-01   1.2285785338740256e-01   0.0000000000000000e+00   1.9060473436254513e-01   1.9036512817949394e-02   1.8748390512123186e-01   1.9565928550116091e-01   3.5149943818684581e-02   2.3666664557359021e-01   1.9801480137694374e-01   2.1916452497996941e-01   2.2114701183389135e-01   7.3968285899569428e-02   3.1592241835592796e-02   1.5380012036520554e-01   1.2824726488252391e-04   1.8754623054217812e-04   7.6767722839570798e-02   1.1856077223680820e-03   1.9635022346620098e-01   1.1328843005042392e-02   1.5757730476558818e-01   6.2444254485674575e-02   6.0950115240620342e-02   1.1505758763147436e-01   1.1693316818439588e-01   1.4336044067958945e-01   1.4667837075911025e-01   7.1270116231242159e-02   1.9143658253480800e-01   7.1825712347242207e-02   1.4091467966764068e-01   1.4124243617413193e-01   3.7516829106044418e-05   3.0483806605602879e-05   1.6491135933109330e-01   1.6713207267090363e-01   1.9248537023752416e-01   1.5018993456234520e-01   6.6803708878764384e-02   1.9899145093484741e-01   2.0978924030890853e-01   7.6850023430475964e-02   2.0461046299244529e-01   2.0699935389824448e-01   1.8630281491264186e-01   1.8367342805075021e-01   1.9341388509521532e-01   1.9702402090938836e-01   1.2302590268493395e-01   1.2635804793691058e-01   1.3726269397452053e-02   7.6514442263725432e-02   2.4751577060278446e-02   1.3232611678099432e-01   1.3798999241820387e-01   8.1580534376870270e-05   2.2929185513050596e-01   2.5947397699996690e-02   2.5406166042270754e-02   2.2928344622103475e-01   1.4930358636377133e-01   7.0223888886916455e-02   1.4747720804832987e-01   1.4741521025942550e-01   1.6179503692060307e-01   8.3385848369230339e-02   1.5776505758432613e-01   2.7128612739619597e-05   1.3068319033990705e-01   2.3783863535671308e-02   1.3474302400973015e-01   1.2625236744437790e-01   2.3866734752389515e-01   3.6517770015704134e-04   4.3545291493712754e-04   4.4531802239555864e-02   5.3701636289226738e-05   1.3811152723241754e-01   2.0885014697030779e-01   1.1031242194485355e-02   2.0943118658522111e-01   2.0616235291499910e-01   2.0458869976500851e-01   1.2597051773646026e-01   1.3548023404072596e-01   1.3634079184864600e-01   1.3294572570068852e-01   1.4259827105469844e-01   1.7713020098598917e-01   0.0000000000000000e+00   1.4537703408860966e-01   4.9219520728964860e-03   1.2614838473838396e-03   1.5913663531523906e-02   7.6072409100984163e-03   3.0150782730609931e-03   1.6338857344527638e-01   1.9260503051323605e-01   3.8502662191599993e-02   1.5487248209942198e-02   1.2572183997923353e-01   1.5225352425256654e-02   1.2090680993468582e-01   2.2585567502579670e-02   0.0000000000000000e+00   0.0000000000000000e+00   3.1372985084972562e-03   2.3471338150565955e-03   1.2689657463228030e-01   1.2980941031240367e-01   1.8261596331101024e-01   1.8849607099955890e-01   1.9306519120084317e-01   1.2707658970168279e-01   1.3793629460535090e-01   2.3824113460308452e-01   1.0059117605706909e-01   1.0405105050179289e-01   1.6544133166999953e-01   1.6696614000908128e-01   1.5750909404269831e-01   1.7028348889091369e-01   1.6198442697729049e-01   1.3600274113758618e-01   9.3575789257141495e-02   2.0408216827017469e-04   8.0704623878366386e-05   5.6740977635134015e-04   9.0003435597070663e-02   1.7431442533372168e-01   2.2319629918741302e-01   4.7035404237152488e-04   2.3761751869140685e-01   1.7589681569148594e-01   2.3826831243540919e-01   9.2961387852447952e-03   8.0610091043986434e-03   1.3892120417461151e-01   1.3670959773352914e-01   1.4355480059677822e-01   1.4588297875227257e-01   1.9182826404950956e-01   1.1015543937428192e-01   1.7587359432912994e-01   2.0844918480022648e-01   2.0832356311632153e-01   1.3139157822728725e-01   2.3857222555774873e-01   1.7710463376605098e-01   1.9327543877074954e-01   2.0466800243785463e-01   1.9446366313682734e-01   1.9214744911975895e-01   6.6936114620460160e-02   2.0017227208954949e-01   1.5728895110974736e-01   6.4450482195040931e-02   7.7766695661776020e-02   2.1199845273074464e-01   9.5453166995274996e-04   2.1337060802573735e-01   7.5524177850851300e-04   1.6328339349256327e-01   3.1333821088595358e-02   3.3786359331896103e-02   1.1693321685807345e-01   6.3314679080489072e-03   2.3734376340515970e-01   1.8799399138168685e-01   1.8752379662502644e-01   2.0001179610578357e-01   3.1530984508618035e-02   3.2958144333335625e-02   6.8110799831307578e-02   1.9989061446245560e-01   1.1672088972785673e-01   5.2834620688023755e-02   0.0000000000000000e+00   6.0979477031524759e-02   1.2491535727176493e-01   4.8286195595519568e-02   1.3332469556707344e-01   7.1373419630179541e-02   6.7221308861955653e-02   1.5357576915453076e-02   1.9275121950338064e-01   2.6410518387804638e-01   1.6843034272661020e-01   1.7305783184683732e-01   1.6089820443203193e-01   1.5593323668479070e-01   1.7632517746034046e-01   1.7457577540341523e-01   2.4323539428299021e-01   2.1837423803830253e-01   4.4374293976242929e-02   2.2226268854875658e-01   4.3272650821526350e-02   6.6072438488612537e-04   6.8892988821012179e-04   1.5143237850144783e-01   1.5333883157890207e-01   2.8348718711310028e-01   1.8812383680751127e-01   1.8956171757071327e-01   1.5959825175853604e-07   2.1201950255808061e-01   2.3146075018780474e-01   3.9914910544674526e-02   2.1258050063368200e-01   4.0114182138837627e-02   2.0511941058298364e-01   2.1059116558587412e-02   1.6838891239618581e-01   1.5746753668768829e-01   2.2214752759289627e-01   2.0247166192481367e-01   1.6352933745463358e-01   3.1523034061299797e-02   2.7793489630507196e-02   2.2461342773491094e-01   2.8916785666520756e-02   8.4440688649876135e-05   3.2147311344511154e-02   9.6090906757660327e-05   1.6612040347725934e-01   1.5552152526476296e-01   1.6832676800671911e-01   6.1450724366304242e-02   1.6701660089890016e-01   2.3383536849195885e-03   2.1687415339195668e-01   2.4134980870120213e-03   1.7645939627708276e-01   2.2253272816603811e-01   2.0522070642870790e-03   2.1468017998934959e-03   4.2138423788884195e-03   2.1997048371302469e-01   1.2759182256846668e-01   1.2498367178606402e-01   1.3284859658394060e-01   1.3529609797439116e-01   4.2040647541275872e-03   1.2992760226537226e-02   1.6165431091184973e-01   2.1381751372599980e-02   3.1623431632693530e-02   3.2363420607237237e-02   1.5886796944508472e-01   2.0971435741359602e-02   2.1951952631036505e-02   5.0652365863718043e-04   2.5788221798920610e-02   2.6045167418274839e-02   6.4873975051102040e-02   1.3102120232988462e-02   1.3026546619965362e-01   3.0737635948022618e-02   2.8738093260483089e-02   8.0714312468152152e-02   1.8922954031934777e-01   1.6108083148532622e-02   7.3335760913647866e-02   1.2710234507649892e-02   1.8235677290746134e-02   1.5717100124343841e-01   1.6090338925225639e-01   9.4349722112055751e-02   2.0682296368626746e-03   2.4847387500820835e-02   2.7276714439425399e-02   1.8731043239408379e-01   1.2980025008699198e-01   1.4092763563221384e-02   1.7138313452816439e-01   2.6448232281125014e-02   1.1868426762869905e-01   1.7363452990185960e-01   2.1807846002403869e-04   2.3328316845844601e-04   2.2931496969303962e-04   2.2691535357344527e-04   3.2403177011028476e-03   6.3807327126962389e-03   1.6634202422188749e-01   1.6706263387609260e-01   1.8710688045256675e-03   3.8573054137702083e-04   2.5858090613952500e-02   5.5172062751685826e-04   1.1359159424240126e-01   2.6225193259855423e-02   1.7001917387954738e-01   1.6918788297056039e-01   1.6816123527810711e-01   2.5821946125556563e-03   1.6418677792165606e-01   1.1261717326318939e-01   1.0620900033518366e-01   1.3838321766988741e-02   7.0476957886799474e-03   6.6176956284437196e-03   5.8452871823867839e-02   1.6059844863430484e-01   1.3237763067608377e-01   1.3207135918041113e-01   1.2487493715344867e-02   1.3918728154403387e-01   1.3943455468117616e-01   8.6335608484238888e-04   1.0386163916251751e-01   7.9337885995647200e-02   8.0617691173942532e-02   1.0042820226244047e-01   1.6749079737656158e-01   1.7164119996895844e-01   2.4741395548643365e-03   2.7181605113262047e-03   1.7027416607989120e-04   1.4479031632436465e-01   1.5095890172605786e-01   6.8827608040660959e-02   1.7548922139276477e-01   1.7587336726023645e-01   1.7833936362901945e-01   8.8790705673406998e-04   2.3994695439815542e-01   1.3080983821967823e-01   1.3039184010604979e-01   1.1580831841329099e-03   2.0040294484451140e-01   1.5262319022046777e-01   1.2333451169704119e-03   2.9056047526498530e-03   2.0299208514508274e-01   2.7008157446324794e-03   1.0257177314184208e-01   1.0547484472427004e-01   1.9682839898774093e-01   2.0779163075147827e-01   1.1012297617308178e-03   3.4120495957622957e-04   3.6299739739465570e-03   1.2794028005200136e-01   1.0060530607003565e-01   9.9866326317141721e-02   1.8367519337512548e-02   1.2894351370176712e-04   2.5443918956543209e-02   2.5584581374089563e-02   1.3436641042954586e-01   1.2974863704571832e-01   1.4237768038021459e-01   1.4495715472133217e-01   9.7858260752062519e-03   1.6887723532071960e-02   1.7885975636836138e-01   1.7522854754254080e-01   1.6794393431199889e-01   1.6836353544177410e-01   3.0556727343740906e-02   8.5395601516590381e-04   3.4587358931843323e-02   3.4589577419240798e-02   1.4274246642138005e-01   1.4025624327255437e-01   1.4200645667900955e-01   1.9744616642168367e-01   6.8355938883712403e-03   1.3869273936022078e-01   7.3168787402105844e-03   2.4000460752361764e-02   3.0017190883795484e-02   2.5719454069985208e-02   7.1566968540281828e-02   2.4373393249319017e-01   9.9499823670853686e-04   1.6596744472408213e-02   6.4305670244219418e-03   6.1204064961382997e-02   6.6297419538487758e-03   1.3985701701395142e-01   1.3785741912043542e-01   1.5834669706801649e-01   1.0040461979325969e-04   2.1676180494409144e-04   7.9198257962421472e-04   1.7685600718861214e-03   1.9219018174917120e-02   2.6270188326654481e-02   2.5979356548777532e-02   2.1619190427137319e-01   2.1899140636221723e-01   2.2508861482379601e-04   2.8422791508360174e-04   3.9119367051001808e-04   4.2139199912535690e-04   5.9711315580019027e-03   1.1323790690987898e-01   2.0642304804545222e-02   6.3686405113139400e-03   9.9243228738912467e-05   1.7526620244842039e-01   1.8227637119977949e-01   2.0744012509025726e-03   1.9532240199379436e-03   1.3776315780506310e-02   2.0700429523791600e-01   2.0736360634386319e-01   1.6104254257032363e-01   2.3662229594875495e-01   1.4358450600445732e-01   1.8080441887754548e-01   2.3045141583950216e-01   2.2939730729680269e-01   2.2317415157300263e-02   1.0076519244581063e-02   2.1167687826814996e-02   9.6435429901224647e-03   1.7987844668941594e-01   1.4608839582539036e-02   1.4352403488332091e-01   2.3277233924089213e-01   2.2143195344520633e-01   1.2499142163721609e-01   8.855079777633