<?xml version="1.0"?>
<VTKFile type="UnstructuredGrid"  version="0.1"  >
<UnstructuredGrid>
<Piece  NumberOfPoints="4041" NumberOfCells="7528">
<Points>
<DataArray  type="Float64"  NumberOfComponents="3"  format="ascii">56818.26305072499 -2506106.549119427 0  42243.18265024776 -2506857.639328673 0  29021.82503270428 -2504261.924403077 0  16550.12421826219 -2499855.084024415 0  4655.032296222308 -2495697.422200306 0  -7261.504300492456 -2494323.621393709 0  -18625.22209185599 -2493319.244519799 0  -29276.70419068305 -2491316.102597814 0  -39371.58555411869 -2489334.610554085 0  -48872.2887625367 -2487148.664179707 0  -56975.1983834749 -2482507.606906727 0  -64856.00389190487 -2478322.793323702 0  -73044.09528138349 -2475914.932075506 0  -80956.89453806292 -2474104.027428716 0  -88297.01099239565 -2471721.028140273 0  -95122.34251075231 -2468979.68610345 0  -102033.0976717825 -2467743.453790383 0  -108667.8585333195 -2467170.433637599 0  -114915.9932325953 -2465984.168528114 0  -120845.1804641294 -2464950.543945178 0  -126578.8706923529 -2464806.636550912 0  -131905.6385080613 -2465871.725308503 0  -137064.687279085 -2466513.84235653 0  -141931.6894689468 -2467114.408289441 0  -146558.2518132151 -2467929.3528441 0  -150981.1782706213 -2468467.119438711 0  -155134.7485423184 -2469150.351715567 0  -159045.2990449393 -2470116.702174883 0  -162783.5633652424 -2470995.874606837 0  -166363.671458142 -2471566.36883454 0  -169791.2094945778 -2472089.92531744 0  -173066.7170363216 -2472372.644023074 0  -176180.8272511644 -2472318.589143077 0  -179127.4549433015 -2471957.228690146 0  -181904.9538427488 -2471408.024018189 0  -184523.0000848745 -2470783.818157519 0  -187005.1824092157 -2470191.610932166 0  -189371.4710935979 -2469697.441393066 0  -191637.2486669229 -2469286.956885205 0  -193813.7840475813 -2468932.72635197 0  -195894.9751436561 -2468622.32397195 0  -197860.5122662469 -2468356.257574914 0  -199699.8496405249 -2468131.239090017 0  -201484.3799547247 -2467852.578310028 0  -203235.1081836333 -2467477.120196301 0  -204148.4039899458 -2468231.328417643 0  -204779.4006070163 -2469477.772737175 0  -206226.3182912302 -2469895.043213626 0  -207209.0484690831 -2471050.353437294 0  -206633.7342709575 -2472198.562901576 0  -206689.2205673746 -2473699.963528 0  -207439.3355646643 -2474578.344737141 0  -208686.077261504 -2475226.075148567 0  -208911.224951669 -2476610.681926033 0  -209786.4032029276 -2477610.304923216 0  -210530.8593792382 -2478701.972600761 0  -211347.3117581898 -2479598.487775704 0  -212436.1994711102 -2480321.158208149 0  -211661.3579813032 -2481227.303558039 0  -212339.4592376566 -2482164.498648201 0  -213368.6786835724 -2482893.361192783 0  -213823.9242874084 -2483849.45466838 0  -213959.3389029546 -2484975.339969706 0  -214654.5105929325 -2485857.893728198 0  -214924.9636302208 -2486897.99052352 0  -215387.1968803907 -2487861.977722809 0  -215850.8935184235 -2488606.845677634 0  -216850.3002300822 -2488718.42607849 0  -217786.1788875306 -2488773.814743428 0  -218655.6596527224 -2488960.510713411 0  -219459.2999881662 -2489050.843080118 0  -220215.8572609511 -2489415.86959818 0  -220949.8949656503 -2489578.990779826 0  -221671.8184129359 -2489638.232601265 0  -222360.8395383537 -2489613.467831609 0  -222996.7344008797 -2489634.843068176 0  -223565.7511683207 -2489892.292788903 0  -224056.7930683517 -2490349.213746534 0  -224487.3350267241 -2490843.9928667 0  -224917.776609416 -2491084.259717198 0  -225385.9512610532 -2490939.6600004 0  -225871.0057115029 -2490692.412192973 0  -226347.6588061106 -2490593.974681439 0  -226807.4764604085 -2490599.669749292 0  -227247.6549526961 -2490611.50259405 0  -227666.4916287626 -2490611.945233863 0  -228063.1258911103 -2490614.649470013 0  -228437.2792766626 -2490619.621715965 0  -228789.0148414041 -2490611.440145575 0  -229118.6979285175 -2490579.661792117 0  -229427.7721220893 -2490551.675512337 0  -229718.2857126026 -2490575.632414152 0  -229992.0195062686 -2490686.778079117 0  -230250.5004979436 -2490869.571547285 0  -230495.0197162354 -2491060.637110347 0  -230726.6693575185 -2491208.220350035 0  -230946.3810285181 -2491273.695406383 0  -231155.1727872346 -2491240.482369016 0  -231354.5763814056 -2491151.916669652 0  -231546.3204437924 -2491058.490694704 0  -231732.1881906295 -2491000.058362073 0  -231914.0081666783 -2491009.477644776 0  -232092.2357485933 -2491100.02032591 0  -232263.9691545902 -2491246.068674924 0  -232425.9547039263 -2491419.407037552 0  -232574.5133449228 -2491597.360932464 0  -232704.8009038861 -2491776.874946281 0  -232810.4395700074 -2491960.360275827 0  -232883.2341085825 -2492150.113137818 0  -232912.9947800571 -2492348.349496039 0  -232888.518304726 -2492556.97189473 0  -232809.3398841225 -2492774.886297886 0  -232684.053466982 -2492998.772055723 0  -232523.4050637269 -2493224.618723386 0  -232341.870709994 -2493446.437774289 0  -232149.8049278373 -2493655.556957558 0  -231926.4623607639 -2493840.270994475 0  -231648.985213168 -2493990.591921999 0  -231333.5089516883 -2494114.232577013 0  -231011.2867655237 -2494226.909041754 0  -230716.5565724511 -2494352.83929517 0  -230448.2156366009 -2494566.308324145 0  -230174.691868224 -2494859.203920859 0  -229854.386277046 -2495099.245907737 0  -229456.0482055206 -2495181.232778375 0  -228998.936468587 -2495162.974046715 0  -228517.5500007842 -2495146.384058104 0  -228039.7566338337 -2495203.170887594 0  -227590.3999753736 -2495397.522350929 0  -227184.981929657 -2495766.19833274 0  -226750.2922870113 -2496024.476637892 0  -226213.5702095754 -2495994.660255382 0  -225600.3011662167 -2496052.877603892 0  -224958.9944484101 -2496261.85032066 0  -224327.7512929673 -2496330.814093316 0  -223631.5812784273 -2496280.649748585 0  -222879.2998883054 -2496301.667794817 0  -222254.9783848506 -2496634.523083093 0  -221626.1319051044 -2497065.090720322 0  -220761.0581340182 -2497211.459477382 0  -219968.5459241767 -2497393.939598728 0  -220203.5455070361 -2497899.480461085 0  -220855.9220298611 -2498603.237242675 0  -221131.2246077028 -2499252.862384938 0  -221774.7122121719 -2499660.862433717 0  -222479.7107982228 -2499760.827055608 0  -223033.1183148655 -2499984.859791101 0  -223490.2596104009 -2500462.200395656 0  -224062.3926326139 -2500600.027660071 0  -224541.1956214423 -2500228.786139573 0  -224949.7350095029 -2499888.083019758 0  -225341.0500730075 -2500225.130315016 0  -225757.1423292761 -2500548.432558256 0  -226180.3939651776 -2500786.080344201 0  -226538.177938963 -2501153.984901021 0  -226773.495284157 -2501569.98568693 0  -227039.0304909855 -2501911.932245616 0  -227468.9595916819 -2502129.814972885 0  -227798.6047508129 -2502389.299855465 0  -227884.9238541838 -2502832.388358992 0  -228126.2989976085 -2503276.196050428 0  -227861.5342855403 -2503623.445554566 0  -227372.9304734626 -2503907.390885711 0  -226957.5853764467 -2504175.647480549 0  -226606.2579015691 -2504483.304832757 0  -226161.0056828749 -2504866.856449728 0  -225815.0711509458 -2505316.314749662 0  -225762.8994468044 -2505806.079859471 0  -225997.7594286802 -2506242.915512673 0  -226398.1360973342 -2506619.148825204 0  -226765.9297719086 -2507036.084494513 0  -226845.4953021393 -2507500.960872594 0  -226465.0153921999 -2507962.631785552 0  -225845.8228635425 -2508243.541008709 0  -225251.6156104354 -2508190.021993677 0  -224690.1793840567 -2507897.641923884 0  -224100.3548492745 -2507553.624348171 0  -223414.5727227449 -2507371.21363621 0  -222654.4265297953 -2507276.075847208 0  -221912.0382560525 -2507297.337862614 0  -221266.9189332082 -2507785.266418245 0  -220681.0921292723 -2508353.609471263 0  -220062.6686429494 -2509000.329523423 0  -219236.8308144344 -2509174.655190252 0  -218255.6568359406 -2509399.603364403 0  -218572.4131759723 -2510066.725015923 0  -218861.5230561548 -2510964.91864626 0  -218883.3556157417 -2511846.204517832 0  -219353.8346553762 -2512525.731451487 0  -219963.2685976659 -2513082.42119797 0  -220488.7752431028 -2513679.96717993 0  -220885.2380172826 -2514382.263808274 0  -220990.1132767769 -2515108.665935786 0  -221485.0382534687 -2515632.998891791 0  -222155.0186764667 -2516036.139659067 0  -222390.5819874348 -2516597.550678985 0  -221683.5075769027 -2517109.541916781 0  -221049.1691573458 -2517587.936233334 0  -220341.3916149238 -2518020.204995572 0  -219495.2331410376 -2518369.688367899 0  -219546.7035698217 -2519131.218151119 0  -219685.2088385221 -2520038.091014113 0  -219723.4857113709 -2520890.499102236 0  -219511.8253665795 -2521706.050384868 0  -218768.9497051224 -2522318.273173176 0  -218062.3835558011 -2522951.471679174 0  -217792.1932780886 -2523832.754628343 0  -217721.1829300973 -2524802.156087346 0  -217105.5823664274 -2525632.89503949 0  -216114.3489158486 -2526130.198485046 0  -215762.8823642595 -2526977.667966621 0  -215624.0210213385 -2528047.606007989 0  -215626.57696477 -2529136.754249504 0  -215068.1955778405 -2530004.876344503 0  -214353.5819060722 -2530902.512838067 0  -213458.5631825881 -2531647.245829566 0  -212582.3066935458 -2532532.655828057 0  -211601.1993616105 -2533281.698502241 0  -210230.8203599756 -2533492.702960313 0  -209359.9819486135 -2532733.353591639 0  -207963.7301089823 -2532402.039407601 0  -207461.9620998055 -2533726.636299287 0  -206743.678788939 -2535012.373417936 0  -207794.6479248811 -2535697.474151645 0  -208706.2824926935 -2536681.47128792 0  -208662.8240783605 -2538140.018106792 0  -209359.9957095342 -2539157.350742796 0  -209716.6789857079 -2540401.743356431 0  -208811.4519281083 -2541468.645140812 0  -209077.7529802741 -2542648.334750617 0  -210420.4603172865 -2542562.067677911 0  -211621.9917404423 -2542541.993928391 0  -212754.33587808 -2543120.703356035 0  -212519.6312691136 -2544241.062718421 0  -213084.8685374894 -2545195.129669076 0  -214049.5779914909 -2545637.606566725 0  -215070.0904746166 -2545977.323497721 0  -215634.1102203288 -2546825.493334641 0  -215621.16885731 -2547930.190942091 0  -214942.2606588054 -2548830.648553029 0  -
[...]
<CellData  Scalars="f_369"> 
<DataArray  type="Float64"  Name="f_369"  format="ascii">0.0000000000000000e+00   6.4842527767551177e-06   0.0000000000000000e+00   0.0000000000000000e+00   0.0000000000000000e+00   0.0000000000000000e+00   6.8227227483343573e-05   4.9991733532070176e-02   5.4865088259474623e-05   5.1668843655120013e-02   1.5702212635020332e-03   1.0531650602322713e-01   7.3662910230073413e-03   7.9562431573990192e-03   3.0641305505100993e-03   7.2325162045563270e-05   2.4439871476037872e-03   2.3849101923639595e-03   8.3609117982095494e-05   3.2691288126521301e-03   3.4187955972123994e-03   7.2266607608719738e-02   1.0058824817930065e-01   1.2333872649906549e-03   3.6061221557343967e-02   2.6546850882218924e-03   4.0887593961793832e-02   0.0000000000000000e+00   2.6269214947375476e-05   1.9947090058128426e-05   0.0000000000000000e+00   6.7095998836785006e-02   2.6945510520352212e-02   2.7598029353817395e-02   2.9658692193078755e-02   1.0622260288367057e-03   8.4046594680720641e-04   1.0483814753374639e-01   1.4317297259295472e-03   4.4547599970440041e-02   0.0000000000000000e+00   3.6111709106677790e-02   1.0320138082855744e-01   0.0000000000000000e+00   1.3173487701764377e-03   5.0271158467207450e-02   4.8045906314350281e-02   9.6738372821942670e-02   1.6148926838157737e-03   4.3314382006050735e-02   5.5577610645310548e-02   5.9924731286983564e-02   6.2667850752883919e-02   1.0792461232752834e-01   7.1331999006087027e-02   4.0306703418988113e-06   1.1622006041904503e-01   3.5600098093840310e-03   3.2186705214167903e-03   1.2315595754439140e-03   2.4088789327224532e-03   4.4588699025196202e-02   4.3665994724702777e-02   1.0812786621637061e-01   3.0899190887583462e-02   7.7279300739447221e-04   7.8192502104623912e-04   3.0228891588956815e-02   0.0000000000000000e+00   8.9641015064419793e-02   8.7224059402857837e-02   9.2265786367967534e-02   8.3985747357618367e-05   6.4827081663547295e-04   7.9168064947578928e-02   1.0826744781019612e-01   1.1713063697695913e-01   1.0840998393679117e-01   8.1318399621480323e-04   4.5322095495221849e-02   1.0834924689791033e-01   1.0585966811523159e-01   7.3059915506056033e-02   2.3510352717049814e-02   2.4996526188539373e-02   8.3512638008918488e-03   0.0000000000000000e+00   1.4599347098432268e-07   2.2384632139774083e-02   7.2886791149832028e-02   0.0000000000000000e+00   0.0000000000000000e+00   3.5134313437466168e-02   7.5732807868622382e-02   6.5441816536963029e-02   3.1982327622443789e-02   1.4102650135964921e-04   3.1283185660266562e-02   1.0533720997566065e-01   5.3457596504300250e-02   1.4554835023870805e-02   3.2700435809466029e-02   2.8875821893821443e-02   1.7356021299091758e-02   6.1449674858455192e-02   5.8610187746984753e-02   2.6679786481279253e-02   3.4999285333554786e-02   3.0551943687839232e-02   1.2423452283863509e-02   2.8984616017517354e-03   0.0000000000000000e+00   0.0000000000000000e+00   8.0044131615355217e-04   0.0000000000000000e+00   7.5915068373288313e-04   2.4507395577407523e-04   2.5431245312051976e-04   4.6555441898403820e-02   4.3805816102226704e-02   2.5669565729902772e-02   1.7897005373442823e-03   1.6842368081958397e-03   2.0636358024966855e-02   1.9345679038027378e-03   3.2998393522671823e-02   2.1504678563915910e-03   7.2408781441633090e-03   3.1853641643055084e-03   3.2330442309367290e-03   1.4726651520228038e-02   1.6337662952261571e-02   0.0000000000000000e+00   3.8122236480109831e-04   9.7414890790037626e-03   4.5837344514328381e-02   7.5406506450482139e-03   1.5651192775264930e-02   2.0597480677871663e-02   5.0160085414961328e-04   9.9539618361482451e-06   4.5675546239970386e-06   1.8085588751859604e-03   2.3237057581734213e-04   5.4898348581412055e-04   2.0181069405060693e-03   2.1167645991593022e-03   9.7600478051196232e-02   3.8986338849817663e-02   2.1600855364608811e-02   0.0000000000000000e+00   0.0000000000000000e+00   7.5441861179435230e-02   7.9383327549502197e-02   9.2114296443394764e-02   0.0000000000000000e+00   8.4565845016390001e-02   7.7824898671921289e-04   8.5851731044971676e-04   8.3963384003899887e-04   1.8723427744331141e-03   1.0163437327141056e-02   1.6001220102604707e-03   4.7434693496535884e-03   1.9736046671422597e-03   1.1395714112598194e-02   8.6393783334752939e-03   6.7215466207191849e-02   6.1013045358035728e-02   8.2874592253878401e-02   3.9772252138373932e-05   3.4059587671856448e-02   2.9868593844421438e-02   3.7299642907263860e-05   5.8228513206596514e-04   5.8002931167804473e-04   2.1084768889552301e-05   5.4304619360436401e-02   2.3378789066939829e-02   0.0000000000000000e+00   1.8503059641343327e-03   1.6893105053190478e-06   1.3618379311203976e-01   2.1843224364883683e-06   8.5803210417718073e-07   1.7111715566442155e-06   8.6417592583333657e-03   1.6463147229701922e-04   1.5299100029619794e-03   1.2688484672368632e-04   2.6028548253430078e-02   2.9575617789506440e-03   2.6411596982658467e-02   3.1934054934074871e-04   2.6638924972838618e-03   3.0829465487718370e-04   2.4259203589233641e-04   1.1606447672996187e-01   2.3168143367949361e-03   8.1123351982041639e-02   7.7550084409798173e-02   8.3544715259741179e-02   1.1749293209383617e-01   7.6353216798292836e-02   0.0000000000000000e+00   5.0366933753072362e-07   7.9869425798237623e-02   1.0232389453605899e-02   4.1445914547757493e-02   1.3383103380809797e-06   5.2631948980603825e-02   3.2280787942029425e-02   1.0986031802118209e-02   9.6924299403411077e-03   6.2964762648613351e-02   2.9445765299260317e-02   5.4759513694311382e-03   2.2739483083356077e-02   0.0000000000000000e+00   0.0000000000000000e+00   2.8614845296804470e-04   0.0000000000000000e+00   6.1405633717941848e-04   7.3362694332974171e-04   4.9558614830437812e-04   2.9644792960465934e-04   2.9758357845657335e-02   1.0343467699235462e-01   2.2627490695169554e-02   1.2662863957087368e-03   8.1444157438371356e-02   4.4642216197926460e-03   8.7403307917737552e-02   1.1546586530034523e-03   1.1799776203344957e-02   1.0053496161464188e-02   2.5599020735673100e-03   0.0000000000000000e+00   0.0000000000000000e+00   3.0328726952921631e-02   3.1487940959756398e-02   6.9852065177279663e-03   9.1951672060552204e-03   2.5115277243990042e-02   1.1332799066746582e-02   5.1914964688847022e-03   4.5276718461594355e-03   5.4221986488866003e-03   4.9027088243990477e-03   1.2194430754742530e-02   7.7427892518085097e-03   1.8991682384639587e-02   1.0528502040421686e-01   1.0559274777171036e-01   8.5374820769166221e-02   2.1358581412380919e-02   8.7754633970279564e-02   5.6788558402850416e-02   5.4580813385513738e-02   1.5185685915137664e-02   3.6129148225643580e-02   6.4919970386786055e-02   3.5673736165518714e-02   6.3380975290589087e-02   2.1813528334740500e-04   0.0000000000000000e+00   0.0000000000000000e+00   0.0000000000000000e+00   0.0000000000000000e+00   9.3655988443144822e-02   0.0000000000000000e+00   0.0000000000000000e+00   1.0712756457835384e-04   1.0091530395642520e-01   1.1565425960676218e-01   9.5257933854953625e-02   8.9208630420887947e-02   8.7226855452102875e-02   1.2003073831965383e-02   6.6123444200727466e-02   1.0549487153609557e-01   1.0026583812611225e-03   1.0573815989942793e-01   4.9143070341056735e-02   1.8680735221879372e-03   5.9346499766249110e-02   9.6576391807452339e-02   5.8088181096163830e-02   1.8282896627645085e-02   1.3899538399674276e-02   2.2791489468010462e-02   1.6309809983383095e-02   1.4093490395867155e-02   9.8983449983919085e-04   9.6054215189087628e-04   4.2979760531654436e-03   1.3366839956121635e-02   7.3794443808560496e-03   0.0000000000000000e+00   2.2712794680212161e-03   9.3622558148087551e-02   7.2022117914009212e-02   7.4225903945345034e-02   0.0000000000000000e+00   1.8756323428246999e-04   8.2236709987901696e-02   8.3559579193986461e-02   2.0174339104221551e-03   5.7177988584328302e-05   1.9525312097113816e-04   0.0000000000000000e+00   4.8435517001048901e-02   3.0406604256011296e-03   6.1100850590783365e-02   1.7206332517507646e-02   2.2865025435317007e-03   1.8746369305365676e-02   2.2486888531699872e-02   1.1652259551596563e-02   8.6745060157391498e-03   4.7920124419193362e-02   2.3113643772545316e-03   2.2940087960814635e-03   8.9023976587878126e-02   1.4897498433178101e-02   1.3453096745087743e-02   1.6668173652942011e-02   1.7099324789346206e-02   0.0000000000000000e+00   6.4497651029317551e-02   2.5494512929225745e-03   3.0954050176919486e-02   4.7167446786961227e-02   4.0415655730333663e-02   1.9579511047038731e-04   2.5187190866366685e-04   8.8019120278029869e-02   0.0000000000000000e+00   6.6134076807062875e-02   7.1852516524552712e-02   0.0000000000000000e+00   0.0000000000000000e+00   1.0020314221263832e-01   9.9426898016459625e-02   7.2285854199332925e-06   3.2973187381153714e-03   0.0000000000000000e+00   1.0262436685805612e-01   1.0215302116254284e-01   5.6602715461733795e-02   5.1923344345665978e-02   4.1403058777917338e-03   2.6793054613350693e-02   1.7094140710877944e-02   1.4233184877363062e-02   2.4363801102809560e-02   2.8841223530387771e-02   9.5500473464850508e-02   0.0000000000000000e+00   6.7367094100363022e-03   1.8076192719832899e-03   0.0000000000000000e+00   3.3773098213216030e-02   3.5397063127373507e-02   0.0000000000000000e+00   8.5159229404822034e-07   0.0000000000000000e+00   0.0000000000000000e+00   9.4930152626445899e-02   9.4013737667887495e-02   1.5444656110904099e-02   0.0000000000000000e+00   5.0845685699251589e-02   0.0000000000000000e+00   4.7506457581517912e-02   5.6755603246774554e-02   1.1899005782479808e-06   1.0562165394280934e-01   5.9478450058666504e-02   8.9508224389005075e-02   9.0923045932891772e-02   1.4371541185228822e-03   7.7217467925617541e-05   2.8746164359102301e-02   3.8435578323119002e-05   6.3779187232757971e-05   1.4257013787138623e-03   5.2259512986388033e-04   2.0207568411793445e-02   0.0000000000000000e+00   3.2153017129719214e-02   2.1030563326435636e-03   8.0208869424731649e-04   2.1336506653608432e-03   2.1583910216374023e-03   1.2202251532668964e-02   1.4054138160958114e-02   3.2774837058255580e-03   6.7004128805987148e-02   3.0423202612393785e-03   8.0641509848537688e-03   8.0829770294162905e-03   1.7576105800605410e-06   1.0077653889610829e-06   2.2380100955956612e-02   2.3326744653579104e-02   7.9278536981111352e-03   1.4966049715949711e-02   1.1509811422470848e-04   4.9076635092020468e-02   5.5173703289616571e-02   6.4625160055417673e-03   6.9036517706660028e-02   7.0616091400916778e-02   5.0584922728046947e-02   4.8630193144380142e-02   5.6368132990974124e-02   5.9364604848186432e-02   1.1558620301185185e-03   3.1180778371676320e-03   0.0000000000000000e+00   2.0638288296776870e-03   0.0000000000000000e+00   6.7109121246913955e-03   7.4939411134417825e-03   0.0000000000000000e+00   9.2816384871792196e-02   0.0000000000000000e+00   0.0000000000000000e+00   9.2274557673758098e-02   2.0827361421003046e-03   1.8979073165131010e-03   2.2473514373050507e-02   2.1611235754721951e-02   4.1755146676515829e-02   4.0892860313878910e-04   3.9262113389030351e-02   0.0000000000000000e+00   1.2378933145054697e-02   1.7885740450132322e-05   1.2109287186981697e-02   6.7013130108423682e-03   1.0416154149994356e-01   1.1019491639238917e-04   1.3228696577311373e-04   1.4275064902993426e-03   0.0000000000000000e+00   9.3758213855222299e-03   7.0249950676385550e-02   0.0000000000000000e+00   7.1586980524180430e-02   6.6121016307401179e-02   6.3984050140766122e-02   2.6786807119354651e-03   6.4848633746473735e-03   2.8302755421235055e-03   4.4910875088257259e-03   1.6148665645640280e-02   4.2868096901760022e-02   0.0000000000000000e+00   1.8625919793570334e-03   0.0000000000000000e+00   0.0000000000000000e+00   0.0000000000000000e+00   0.0000000000000000e+00   4.6031744010922501e-04   2.6849934791691843e-02   5.9381487714441718e-02   0.0000000000000000e+00   0.0000000000000000e+00   2.4481842694812989e-02   0.0000000000000000e+00   2.2543590638430956e-02   3.8128036079861028e-05   0.0000000000000000e+00   0.0000000000000000e+00   4.8372751355365846e-04   3.4136707330332009e-04   2.7027870076685962e-02   2.6589068583410353e-03   5.4810529244547546e-02   5.8478743628635518e-02   2.3495596639371796e-02   2.6011588277774877e-03   3.7195990474572145e-03   7.5035625304867834e-02   7.2481710981143208e-04   8.1252775249086905e-04   4.6404801771684955e-02   4.8270449007978035e-02   2.4670095147124003e-02   3.5092345768970683e-02   3.0521597219022246e-02   4.3014189365409069e-03   1.4800434717688886e-03   3.1152630888414673e-05   4.7439006023156010e-06   1.1368142457184240e-04   1.3862060584741872e-03   3.9792748448614444e-03   5.6686747504524085e-02   7.0368366200243592e-05   1.0545780873699882e-01   4.0095754325372565e-03   1.0600809979371795e-01   0.0000000000000000e+00   0.0000000000000000e+00   1.6054320185006105e-02   1.4604179320655188e-02   3.1401444070105929e-02   3.3243913862134815e-02   9.1073746129566001e-03   2.7760794888757024e-03   3.6781441448172775e-03   3.3855571431038074e-02   3.2969385890601360e-02   6.1750671281119293e-03   1.0517896304244673e-01   3.8554029134763822e-03   6.8268950753748503e-02   7.4944822066851408e-02   6.8893355181673513e-02   6.1835226277871129e-02   1.2564139685675434e-04   7.1276887849016812e-02   1.9725723711905990e-02   1.1542278362751713e-04   8.8564161223395332e-03   7.7428797220388840e-02   2.3590176882310203e-04   7.7921179227250989e-02   2.2697419645034469e-04   3.7241292669160111e-03   1.6020128200577329e-04   1.9566645882471731e-04   1.2726504970267249e-03   0.0000000000000000e+00   1.0623590877553406e-01   2.8385102076456260e-02   2.6783534624754173e-02   2.1875091609720031e-02   1.1294750960578841e-07   3.3493520104818687e-07   2.7618452807414368e-03   1.9933661804772695e-02   1.2507838312830486e-03   1.5988511017193193e-03   0.0000000000000000e+00   5.4057315595875191e-04   5.4226164037569470e-03   1.3037400892246139e-03   1.0978181766710579e-02   7.4851486787030712e-04   4.6545334668502656e-04   0.0000000000000000e+00   9.1659058627591352e-03   1.0708542220682139e-01   2.5512035114180084e-02   2.7972201113974405e-02   2.1536976811077201e-02   1.8936736263054060e-02   3.9618137502926108e-03   3.8395587159632868e-03   1.0850767299281733e-01   8.3406572488722061e-02   1.8114178610463566e-04   8.6221154732959868e-02   1.7345464421624523e-04   1.4289235489500427e-04   1.5554802016205804e-04   1.8034474858894107e-02   2.0176025564102640e-02   1.1789163880666012e-01   4.5059838041974748e-02   4.7335141414422327e-02   0.0000000000000000e+00   5.7095192247031766e-02   1.0736157812614533e-01   7.8465512816924371e-05   8.3332829523526511e-02   1.1235923164427455e-04   7.9275466852795726e-02   1.0092524589399623e-06   5.6100245281120502e-02   3.2502926625009240e-03   5.6432678027940837e-02   7.6679851962600534e-02   3.4143638212347010e-03   2.3809802434343366e-04   1.2268416891914730e-04   9.9832169358598330e-02   8.4845930826753649e-06   0.0000000000000000e+00   4.0350632573342542e-05   1.8194534171210387e-06   3.0879641433326770e-02   2.6001095386343820e-02   2.4572326624344793e-02   2.9807877162270845e-04   2.4147305305031001e-02   0.0000000000000000e+00   8.7454048474706197e-02   0.0000000000000000e+00   3.9027024181139147e-03   9.7054977311173768e-02   0.0000000000000000e+00   0.0000000000000000e+00   0.0000000000000000e+00   8.9895499171611701e-02   6.8658095827695623e-03   4.9806200605792689e-03   1.0543266540877715e-02   1.2151555216600544e-02   0.0000000000000000e+00   0.0000000000000000e+00   1.2044694715224810e-02   0.0000000000000000e+00   6.1436960395170468e-07   8.1925693881275977e-07   3.1839496265245481e-03   2.9647387405339913e-06   6.1461552280855956e-06   6.1344976784299697e-06   0.0000000000000000e+00   0.0000000000000000e+00   3.1681229732843485e-04   0.0000000000000000e+00   2.8962181092827329e-03   3.3914892949847746e-07   9.6307463520167872e-08   1.1820007733241340e-02   3.7845770298790556e-02   5.3457113411389946e-06   1.1474609314859117e-03   0.0000000000000000e+00   1.1421506020435866e-05   3.0383695719827734e-02   3.3610029285857677e-02   1.8692724279046155e-02   0.0000000000000000e+00   2.1846466423043663e-04   3.0792137807753603e-04   3.5967241622710616e-02   1.0074511578686723e-02   0.0000000000000000e+00   5.4854333920362069e-03   0.0000000000000000e+00   1.3318425910907288e-03   5.4119564167297912e-03   0.0000000000000000e+00   0.0000000000000000e+00   0.0000000000000000e+00   0.0000000000000000e+00   5.4157729588864151e-04   0.0000000000000000e+00   4.5871259445486451e-02   4.6665962759812288e-02   5.8821021722392497e-04   0.0000000000000000e+00   0.0000000000000000e+00   1.0239580660431203e-06   2.9389737476178406e-03   0.0000000000000000e+00   2.2194422385042309e-02   2.4574922203719120e-02   1.8145559785653693e-02   3.7463231234561537e-04   1.5927985560638104e-02   3.0487993861969720e-03   2.7714394972059094e-03   0.0000000000000000e+00   0.0000000000000000e+00   0.0000000000000000e+00   1.2327743811884408e-04   4.4042532794600929e-02   5.3311961225737947e-03   5.4709521995291860e-03   0.0000000000000000e+00   2.3001098834386927e-03   2.2994398433762819e-03   0.0000000000000000e+00   3.9823947345403177e-03   3.9448779494839260e-04   4.2539980506816678e-04   3.6143962802044800e-03   2.1405030477074066e-02   2.3781235262207136e-02   0.0000000000000000e+00   0.0000000000000000e+00   5.5525005627797329e-05   2.1491323217620310e-02   2.5505624558045677e-02   2.0642995709229508e-03   4.2010912202790525e-03   2.9910097986245679e-02   4.3025414011961414e-03   1.8618916443837084e-04   9.6105823979798943e-02   6.7833549538057853e-03   5.7365568897939515e-03   0.0000000000000000e+00   3.2540719834721253e-02   1.1146648092080030e-02   0.0000000000000000e+00   5.7495771684558795e-04   3.6497792047098125e-02   5.4471473412073086e-04   7.7656531891996238e-04   8.5506637886107221e-04   4.1173444681456554e-02   4.8063974087964458e-02   2.6200017185143128e-04   1.0485937385234681e-04   0.0000000000000000e+00   2.5331482199507900e-03   2.4522811858284600e-03   2.3289925571249133e-03   0.0000000000000000e+00   7.2893648947767927e-05   0.0000000000000000e+00   0.0000000000000000e+00   5.0756588380371070e-03   2.0257219683466870e-03   1.0289248838497649e-02   1.2085972490540272e-02   0.0000000000000000e+00   0.0000000000000000e+00   3.9790524890353854e-03   3.9520393217672032e-03   3.7627098101492042e-02   3.5579989078966284e-02   0.0000000000000000e+00   0.0000000000000000e+00   7.2635189666502114e-08   3.9194295659242017e-07   1.6763263960960124e-02   1.5265134019406138e-02   1.5647290727774085e-02   3.3393475552650709e-02   0.0000000000000000e+00   1.3113584399945628e-02   0.0000000000000000e+00   0.0000000000000000e+00   0.0000000000000000e+00   0.0000000000000000e+00   5.8740766035551397e-03   9.8847383140206607e-02   2.3622169858354344e-04   0.0000000000000000e+00   0.0000000000000000e+00   9.3431770984549569e-04   0.0000000000000000e+00   2.2840597243511131e-03   2.1977743751533450e-03   3.2357808309829712e-02   0.0000000000000000e+00   0.0000000000000000e+00   0.0000000000000000e+00   6.2542374892236808e-04   0.0000000000000000e+00   0.0000000000000000e+00   0.0000000000000000e+00   7.8464524931358609e-02   8.0309123135605051e-02   0.0000000000000000e+00   0.0000000000000000e+00   0.0000000000000000e+00   0.0000000000000000e+00   0.0000000000000000e+00   2.7009265842153256e-03   0.0000000000000000e+00   0.0000000000000000e+00   0.0000000000000000e+00   1.1456151879334664e-02   1.6421870868440224e-02   6.1767729279397587e-04   4.9580770317098153e-04   0.0000000000000000e+00   2.6757502579648911e-02   2.6240019834156910e-02   3.0433213854587416e-03   1.0397326206006433e-01   3.2197661377771896e-03   6.6992062131365271e-02   6.9129867204908865e-02   6.8944514233767615e-02   1.2369971548512315e-06   0.0000000000000000e+00   8.4769463642871130e-06   0.0000000000000000e+00   6.6898379797706006e-02   0.0000000000000000e+00   3.1393962883539571e-03   1.0664930622295242e-01   9.3908687723940953e-02   2.4574772032504434e-03   0.000000000000