<?xml version="1.0"?>
<VTKFile type="UnstructuredGrid"  version="0.1"  >
<UnstructuredGrid>
<Piece  NumberOfPoints="4041" NumberOfCells="7528">
<Points>
<DataArray  type="Float64"  NumberOfComponents="3"  format="ascii">56818.26305072499 -2506106.549119427 0  42243.18265024776 -2506857.639328673 0  29021.82503270428 -2504261.924403077 0  16550.12421826219 -2499855.084024415 0  4655.032296222308 -2495697.422200306 0  -7261.504300492456 -2494323.621393709 0  -18625.22209185599 -2493319.244519799 0  -29276.70419068305 -2491316.102597814 0  -39371.58555411869 -2489334.610554085 0  -48872.2887625367 -2487148.664179707 0  -56975.1983834749 -2482507.606906727 0  -64856.00389190487 -2478322.793323702 0  -73044.09528138349 -2475914.932075506 0  -80956.89453806292 -2474104.027428716 0  -88297.01099239565 -2471721.028140273 0  -95122.34251075231 -2468979.68610345 0  -102033.0976717825 -2467743.453790383 0  -108667.8585333195 -2467170.433637599 0  -114915.9932325953 -2465984.168528114 0  -120845.1804641294 -2464950.543945178 0  -126578.8706923529 -2464806.636550912 0  -131905.6385080613 -2465871.725308503 0  -137064.687279085 -2466513.84235653 0  -141931.6894689468 -2467114.408289441 0  -146558.2518132151 -2467929.3528441 0  -150981.1782706213 -2468467.119438711 0  -155134.7485423184 -2469150.351715567 0  -159045.2990449393 -2470116.702174883 0  -162783.5633652424 -2470995.874606837 0  -166363.671458142 -2471566.36883454 0  -169791.2094945778 -2472089.92531744 0  -173066.7170363216 -2472372.644023074 0  -176180.8272511644 -2472318.589143077 0  -179127.4549433015 -2471957.228690146 0  -181904.9538427488 -2471408.024018189 0  -184523.0000848745 -2470783.818157519 0  -187005.1824092157 -2470191.610932166 0  -189371.4710935979 -2469697.441393066 0  -191637.2486669229 -2469286.956885205 0  -193813.7840475813 -2468932.72635197 0  -195894.9751436561 -2468622.32397195 0  -197860.5122662469 -2468356.257574914 0  -199699.8496405249 -2468131.239090017 0  -201484.3799547247 -2467852.578310028 0  -203235.1081836333 -2467477.120196301 0  -204148.4039899458 -2468231.328417643 0  -204779.4006070163 -2469477.772737175 0  -206226.3182912302 -2469895.043213626 0  -207209.0484690831 -2471050.353437294 0  -206633.7342709575 -2472198.562901576 0  -206689.2205673746 -2473699.963528 0  -207439.3355646643 -2474578.344737141 0  -208686.077261504 -2475226.075148567 0  -208911.224951669 -2476610.681926033 0  -209786.4032029276 -2477610.304923216 0  -210530.8593792382 -2478701.972600761 0  -211347.3117581898 -2479598.487775704 0  -212436.1994711102 -2480321.158208149 0  -211661.3579813032 -2481227.303558039 0  -212339.4592376566 -2482164.498648201 0  -213368.6786835724 -2482893.361192783 0  -213823.9242874084 -2483849.45466838 0  -213959.3389029546 -2484975.339969706 0  -214654.5105929325 -2485857.893728198 0  -214924.9636302208 -2486897.99052352 0  -215387.1968803907 -2487861.977722809 0  -215850.8935184235 -2488606.845677634 0  -216850.3002300822 -2488718.42607849 0  -217786.1788875306 -2488773.814743428 0  -218655.6596527224 -2488960.510713411 0  -219459.2999881662 -2489050.843080118 0  -220215.8572609511 -2489415.86959818 0  -220949.8949656503 -2489578.990779826 0  -221671.8184129359 -2489638.232601265 0  -222360.8395383537 -2489613.467831609 0  -222996.7344008797 -2489634.843068176 0  -223565.7511683207 -2489892.292788903 0  -224056.7930683517 -2490349.213746534 0  -224487.3350267241 -2490843.9928667 0  -224917.776609416 -2491084.259717198 0  -225385.9512610532 -2490939.6600004 0  -225871.0057115029 -2490692.412192973 0  -226347.6588061106 -2490593.974681439 0  -226807.4764604085 -2490599.669749292 0  -227247.6549526961 -2490611.50259405 0  -227666.4916287626 -2490611.945233863 0  -228063.1258911103 -2490614.649470013 0  -228437.2792766626 -2490619.621715965 0  -228789.0148414041 -2490611.440145575 0  -229118.6979285175 -2490579.661792117 0  -229427.7721220893 -2490551.675512337 0  -229718.2857126026 -2490575.632414152 0  -229992.0195062686 -2490686.778079117 0  -230250.5004979436 -2490869.571547285 0  -230495.0197162354 -2491060.637110347 0  -230726.6693575185 -2491208.220350035 0  -230946.3810285181 -2491273.695406383 0  -231155.1727872346 -2491240.482369016 0  -231354.5763814056 -2491151.916669652 0  -231546.3204437924 -2491058.490694704 0  -231732.1881906295 -2491000.058362073 0  -231914.0081666783 -2491009.477644776 0  -232092.2357485933 -2491100.02032591 0  -232263.9691545902 -2491246.068674924 0  -232425.9547039263 -2491419.407037552 0  -232574.5133449228 -2491597.360932464 0  -232704.8009038861 -2491776.874946281 0  -232810.4395700074 -2491960.360275827 0  -232883.2341085825 -2492150.113137818 0  -232912.9947800571 -2492348.349496039 0  -232888.518304726 -2492556.97189473 0  -232809.3398841225 -2492774.886297886 0  -232684.053466982 -2492998.772055723 0  -232523.4050637269 -2493224.618723386 0  -232341.870709994 -2493446.437774289 0  -232149.8049278373 -2493655.556957558 0  -231926.4623607639 -2493840.270994475 0  -231648.985213168 -2493990.591921999 0  -231333.5089516883 -2494114.232577013 0  -231011.2867655237 -2494226.909041754 0  -230716.5565724511 -2494352.83929517 0  -230448.2156366009 -2494566.308324145 0  -230174.691868224 -2494859.203920859 0  -229854.386277046 -2495099.245907737 0  -229456.0482055206 -2495181.232778375 0  -228998.936468587 -2495162.974046715 0  -228517.5500007842 -2495146.384058104 0  -228039.7566338337 -2495203.170887594 0  -227590.3999753736 -2495397.522350929 0  -227184.981929657 -2495766.19833274 0  -226750.2922870113 -2496024.476637892 0  -226213.5702095754 -2495994.660255382 0  -225600.3011662167 -2496052.877603892 0  -224958.9944484101 -2496261.85032066 0  -224327.7512929673 -2496330.814093316 0  -223631.5812784273 -2496280.649748585 0  -222879.2998883054 -2496301.667794817 0  -222254.9783848506 -2496634.523083093 0  -221626.1319051044 -2497065.090720322 0  -220761.0581340182 -2497211.459477382 0  -219968.5459241767 -2497393.939598728 0  -220203.5455070361 -2497899.480461085 0  -220855.9220298611 -2498603.237242675 0  -221131.2246077028 -2499252.862384938 0  -221774.7122121719 -2499660.862433717 0  -222479.7107982228 -2499760.827055608 0  -223033.1183148655 -2499984.859791101 0  -223490.2596104009 -2500462.200395656 0  -224062.3926326139 -2500600.027660071 0  -224541.1956214423 -2500228.786139573 0  -224949.7350095029 -2499888.083019758 0  -225341.0500730075 -2500225.130315016 0  -225757.1423292761 -2500548.432558256 0  -226180.3939651776 -2500786.080344201 0  -226538.177938963 -2501153.984901021 0  -226773.495284157 -2501569.98568693 0  -227039.0304909855 -2501911.932245616 0  -227468.9595916819 -2502129.814972885 0  -227798.6047508129 -2502389.299855465 0  -227884.9238541838 -2502832.388358992 0  -228126.2989976085 -2503276.196050428 0  -227861.5342855403 -2503623.445554566 0  -227372.9304734626 -2503907.390885711 0  -226957.5853764467 -2504175.647480549 0  -226606.2579015691 -2504483.304832757 0  -226161.0056828749 -2504866.856449728 0  -225815.0711509458 -2505316.314749662 0  -225762.8994468044 -2505806.079859471 0  -225997.7594286802 -2506242.915512673 0  -226398.1360973342 -2506619.148825204 0  -226765.9297719086 -2507036.084494513 0  -226845.4953021393 -2507500.960872594 0  -226465.0153921999 -2507962.631785552 0  -225845.8228635425 -2508243.541008709 0  -225251.6156104354 -2508190.021993677 0  -224690.1793840567 -2507897.641923884 0  -224100.3548492745 -2507553.624348171 0  -223414.5727227449 -2507371.21363621 0  -222654.4265297953 -2507276.075847208 0  -221912.0382560525 -2507297.337862614 0  -221266.9189332082 -2507785.266418245 0  -220681.0921292723 -2508353.609471263 0  -220062.6686429494 -2509000.329523423 0  -219236.8308144344 -2509174.655190252 0  -218255.6568359406 -2509399.603364403 0  -218572.4131759723 -2510066.725015923 0  -218861.5230561548 -2510964.91864626 0  -218883.3556157417 -2511846.204517832 0  -219353.8346553762 -2512525.731451487 0  -219963.2685976659 -2513082.42119797 0  -220488.7752431028 -2513679.96717993 0  -220885.2380172826 -2514382.263808274 0  -220990.1132767769 -2515108.665935786 0  -221485.0382534687 -2515632.998891791 0  -222155.0186764667 -2516036.139659067 0  -222390.5819874348 -2516597.550678985 0  -221683.5075769027 -2517109.541916781 0  -221049.1691573458 -2517587.936233334 0  -220341.3916149238 -2518020.204995572 0  -219495.2331410376 -2518369.688367899 0  -219546.7035698217 -2519131.218151119 0  -219685.2088385221 -2520038.091014113 0  -219723.4857113709 -2520890.499102236 0  -219511.8253665795 -2521706.050384868 0  -218768.9497051224 -2522318.273173176 0  -218062.3835558011 -2522951.471679174 0  -217792.1932780886 -2523832.754628343 0  -217721.1829300973 -2524802.156087346 0  -217105.5823664274 -2525632.89503949 0  -216114.3489158486 -2526130.198485046 0  -215762.8823642595 -2526977.667966621 0  -215624.0210213385 -2528047.606007989 0  -215626.57696477 -2529136.754249504 0  -215068.1955778405 -2530004.876344503 0  -214353.5819060722 -2530902.512838067 0  -213458.5631825881 -2531647.245829566 0  -212582.3066935458 -2532532.655828057 0  -211601.1993616105 -2533281.698502241 0  -210230.8203599756 -2533492.702960313 0  -209359.9819486135 -2532733.353591639 0  -207963.7301089823 -2532402.039407601 0  -207461.9620998055 -2533726.636299287 0  -206743.678788939 -2535012.373417936 0  -207794.6479248811 -2535697.474151645 0  -208706.2824926935 -2536681.47128792 0  -208662.8240783605 -2538140.018106792 0  -209359.9957095342 -2539157.350742796 0  -209716.6789857079 -2540401.743356431 0  -208811.4519281083 -2541468.645140812 0  -209077.7529802741 -2542648.334750617 0  -210420.4603172865 -2542562.067677911 0  -211621.9917404423 -2542541.993928391 0  -212754.33587808 -2543120.703356035 0  -212519.6312691136 -2544241.062718421 0  -213084.8685374894 -2545195.129669076 0  -214049.5779914909 -2545637.606566725 0  -215070.0904746166 -2545977.323497721 0  -215634.1102203288 -2546825.493334641 0  -215621.16885731 -2547930.190942091 0  -214942.2606588054 -2548830.648553029 0  -
[...]
<CellData  Scalars="f_357"> 
<DataArray  type="Float64"  Name="f_357"  format="ascii">0.0000000000000000e+00   1.0177780048484727e-04   0.0000000000000000e+00   0.0000000000000000e+00   0.0000000000000000e+00   0.0000000000000000e+00   0.0000000000000000e+00   4.4014681781568789e-02   0.0000000000000000e+00   4.5525289895266580e-02   1.1557354468688328e-04   9.3935350474856835e-02   7.5001282012607112e-03   8.0373631962928592e-03   3.0967002559527841e-03   0.0000000000000000e+00   8.9668495987440318e-04   8.4885277740047557e-04   0.0000000000000000e+00   3.0091553994504262e-03   3.2289341861139712e-03   6.4392252172122494e-02   8.8113892007992009e-02   6.2498874237582893e-04   2.9587332562831199e-02   3.4821876411457399e-04   3.3750250648133376e-02   0.0000000000000000e+00   9.2946685104921430e-05   7.4167648929365291e-05   0.0000000000000000e+00   6.0282989693580931e-02   2.3179374742331102e-02   2.3844779152463622e-02   2.5583377546114422e-02   5.6328307480940252e-04   5.9070803649202031e-05   9.3571868928289656e-02   2.2574428047900637e-03   3.9693828796697084e-02   0.0000000000000000e+00   3.1883646360232137e-02   9.2134102078476360e-02   0.0000000000000000e+00   2.1973939874221976e-03   4.5072537001961371e-02   4.2979867514716066e-02   8.4908582857248074e-02   2.5431571656622066e-04   3.4878295461919159e-02   4.6169314892468345e-02   5.0391196497130086e-02   5.2802765285011204e-02   9.6204759427686456e-02   6.2538637890940746e-02   0.0000000000000000e+00   1.0243039010433216e-01   3.3902800469468746e-03   3.1082273529370948e-03   8.1054009489252822e-05   1.8999335215045567e-03   3.7125716530018019e-02   3.7300814820153287e-02   9.3263272786674567e-02   2.7117195522604137e-02   6.6507223798580885e-04   7.1358040524219040e-04   2.6538222082762786e-02   0.0000000000000000e+00   7.9986054404411422e-02   7.7830426553345988e-02   8.2813402410676709e-02   2.2677485726341421e-04   4.3871141173114459e-05   7.0395660009420657e-02   9.8847623541239243e-02   1.0761608469831138e-01   9.6633737794567520e-02   6.0421056202873463e-04   3.9865503988451602e-02   9.6661021704365135e-02   9.6723649785059485e-02   6.5603150499168927e-02   2.0872433876969920e-02   2.2119246521051121e-02   6.0153493286866427e-03   0.0000000000000000e+00   1.2296222125334518e-05   1.8662457810276315e-02   6.4969309996329980e-02   0.0000000000000000e+00   0.0000000000000000e+00   3.0949094366065948e-02   6.7904087617576131e-02   5.8198126555465017e-02   2.8089226060666175e-02   0.0000000000000000e+00   2.7534091836475393e-02   9.6481613742225386e-02   4.7148684769640320e-02   1.0017134404301690e-02   2.8765780651117338e-02   2.5416973037229371e-02   1.2435980761640583e-02   5.4526738040635299e-02   5.1915012476217451e-02   1.8222382594791628e-02   3.1384631382284985e-02   2.1674325477591756e-02   9.3614151640103345e-03   9.1792495165367619e-04   0.0000000000000000e+00   0.0000000000000000e+00   6.3776500895348725e-05   0.0000000000000000e+00   5.3904478287775675e-05   2.5760964101264071e-04   2.1224079411141938e-04   4.0863750113941388e-02   3.8346385524444394e-02   2.3056263801161395e-02   2.4966575097882197e-03   2.4212451321410336e-03   1.6727361264203558e-02   2.9235334459245556e-04   2.7767765682926600e-02   2.2157008953069252e-04   7.3787744963917769e-03   1.9237483811869681e-03   2.1164575938883400e-03   9.4320082691478034e-03   1.0676217765620900e-02   0.0000000000000000e+00   2.0739963625967807e-04   7.4002322065377189e-03   4.1050512803537637e-02   5.4433397329790717e-03   9.7983072247635403e-03   1.4376398784055985e-02   8.3830242307537928e-04   0.0000000000000000e+00   0.0000000000000000e+00   3.1484796888461516e-06   6.6791080673622152e-05   5.3437720771404166e-04   2.6190677676342696e-03   2.6975754310452605e-03   8.9847688241756804e-02   3.4085663560710459e-02   1.5177230054010839e-02   0.0000000000000000e+00   5.0905163856024406e-06   6.6228290340633128e-02   6.9794174813064519e-02   8.0789684679962739e-02   0.0000000000000000e+00   7.3985065571626249e-02   0.0000000000000000e+00   8.0535961004922832e-04   6.9445514867814420e-04   2.2361383262176461e-03   8.1046327465759682e-03   2.0731017670864147e-03   1.5302496767247182e-03   1.5704122094341541e-04   9.0478472792192531e-03   6.6537823838068964e-03   5.8334405123113872e-02   5.2773729666550959e-02   7.4245207061771609e-02   5.6370901391804755e-05   2.8938632823287458e-02   2.5287072495499194e-02   5.4675096150174161e-05   4.5214202215965524e-04   5.2864529458992830e-04   2.5179204284980419e-05   4.7423215117885699e-02   1.9710427680042462e-02   0.0000000000000000e+00   2.5414419982497009e-04   0.0000000000000000e+00   1.2646958235071382e-01   0.0000000000000000e+00   0.0000000000000000e+00   0.0000000000000000e+00   6.0512460690234256e-03   1.6944443249885749e-04   8.1857059673204368e-04   1.5122308668176729e-04   2.1942517388899099e-02   2.5306093863655343e-03   2.2273051579132647e-02   4.8733553628001059e-06   2.6523479358825586e-04   3.2340251121412240e-06   1.4434681035276466e-04   1.0212142117273158e-01   1.7419254634503574e-04   7.2474474540795406e-02   6.9291344398159344e-02   7.6545422720911083e-02   1.0293285363560181e-01   6.8244877009651428e-02   0.0000000000000000e+00   0.0000000000000000e+00   7.1378211814493012e-02   9.9734790688424373e-03   3.6199947747078451e-02   1.7330612522779278e-05   4.5676980008357640e-02   2.5700167860930229e-02   1.0198631430506500e-02   9.0921861739250102e-03   5.5252078758730311e-02   2.3203407034626262e-02   4.3583708707875101e-03   1.9375103708008195e-02   0.0000000000000000e+00   0.0000000000000000e+00   1.2094985440781410e-04   0.0000000000000000e+00   5.7229741501393884e-04   6.2100202575853176e-04   4.6239027951030620e-04   1.8155564554256925e-05   2.3589973360244067e-02   9.4663025572902640e-02   1.6141938696324569e-02   3.0582971306526821e-04   7.0708111908414376e-02   3.4096972493608286e-03   7.6062901349842671e-02   3.3078853207298749e-04   9.3198667348815649e-03   7.8251894010471744e-03   1.8793234519591103e-03   0.0000000000000000e+00   0.0000000000000000e+00   2.7280947586133860e-02   2.8294406164515371e-02   5.0287696778418944e-03   6.9940992495640892e-03   1.8239843879355781e-02   5.2762291783549509e-03   9.2437611003433025e-04   7.6142927923484054e-04   9.5684619222624839e-04   7.8817399243112391e-04   7.5912404510857226e-03   3.5275201171006540e-03   1.3755921470817509e-02   9.7752972838233781e-02   9.8095121982023595e-02   7.4751177190179929e-02   1.5834447284036660e-02   7.6935878217689449e-02   4.8892199995482111e-02   4.7035126989303330e-02   1.1092286634177679e-02   2.9019511376529729e-02   5.8067680909840338e-02   2.8534874681858120e-02   5.6700932677100052e-02   1.1889939147310494e-05   0.0000000000000000e+00   0.0000000000000000e+00   0.0000000000000000e+00   0.0000000000000000e+00   8.2794115025821749e-02   0.0000000000000000e+00   0.0000000000000000e+00   2.3969789605787667e-04   8.9312994315614166e-02   1.0181863621955731e-01   8.5736210154992692e-02   7.9473833913479300e-02   7.7694224322391148e-02   5.7375732163175890e-03   5.8941309482315157e-02   9.7917459361736389e-02   1.1807974912172116e-04   9.8219701632613385e-02   4.3924677670433877e-02   2.1157677519177279e-03   5.3137732756603537e-02   8.6943559971285417e-02   5.1612192972856297e-02   1.6593791050003241e-02   6.2667634009495850e-03   2.0587798235050709e-02   1.1367535024289036e-02   9.0497573749622907e-03   5.9572034865890623e-05   6.2682242235217867e-05   2.9527762336512002e-03   8.7134922978901845e-03   5.6574539629766045e-03   0.0000000000000000e+00   1.0101317915204616e-03   8.3608100534616564e-02   6.4457401101234671e-02   6.6416396807898417e-02   0.0000000000000000e+00   0.0000000000000000e+00   7.4942537741422247e-02   7.6253057797908252e-02   5.2364396933725886e-04   2.0441550585653898e-04   5.0087440564188456e-04   0.0000000000000000e+00   4.3092828758323660e-02   3.1085527207853868e-03   5.4644853709075986e-02   9.3733832053086528e-03   1.2410859908221525e-03   1.5582101954708365e-02   1.8848615398244981e-02   9.3760225162154258e-03   6.7378667751383436e-03   4.2536775044890188e-02   2.7942779846481256e-03   1.0905958397450196e-03   8.0147480538320146e-02   1.1975243055856222e-02   1.0732867743749822e-02   1.3468174764119488e-02   1.3813617858014387e-02   0.0000000000000000e+00   5.6814535416973691e-02   2.9566969208850778e-03   2.7159497345608845e-02   4.0904086424603144e-02   3.4889171986360983e-02   8.4944811863110815e-05   1.1902316334378304e-04   7.9307690417927401e-02   0.0000000000000000e+00   5.8815553524433940e-02   6.4016491950505489e-02   0.0000000000000000e+00   0.0000000000000000e+00   8.9294338908398149e-02   8.8903609398466976e-02   0.0000000000000000e+00   3.7345647317329612e-03   0.0000000000000000e+00   8.9020289364670879e-02   8.8747193615450318e-02   5.0159616033420923e-02   4.5916037568951296e-02   3.8979878837397306e-03   2.3741105500901000e-02   1.4007369212684230e-02   1.1467397134910783e-02   2.0451686766314994e-02   2.4411816407867690e-02   8.5421564767748495e-02   0.0000000000000000e+00   6.6937746001546443e-03   1.4901055094886013e-03   0.0000000000000000e+00   2.9492684607192572e-02   3.0863754086366837e-02   0.0000000000000000e+00   0.0000000000000000e+00   0.0000000000000000e+00   0.0000000000000000e+00   8.2629924239722360e-02   8.1976252448491271e-02   1.2401139623417988e-02   0.0000000000000000e+00   4.5529628138856498e-02   0.0000000000000000e+00   4.2548302962011175e-02   5.0800015062544224e-02   0.0000000000000000e+00   9.7801566071074097e-02   5.3227054623682407e-02   8.1372668004007956e-02   8.2778105797605583e-02   1.8537978295627016e-04   3.5894115999858501e-05   2.5585175885034797e-02   1.7228367463946951e-06   1.2378654395205556e-05   2.2637155807673270e-04   3.6807538886913605e-04   1.8394077587563246e-02   0.0000000000000000e+00   2.8660671709781732e-02   1.5560616228584823e-03   5.5920042163211576e-04   8.4760013232839976e-04   7.5855406621544073e-04   1.1215652930544249e-02   1.2793761085680049e-02   2.3752320151035175e-03   5.6495595572512228e-02   2.0924885083925910e-03   3.2893485473759788e-03   3.2338357184270180e-03   1.6304059955413609e-07   9.3482979159389506e-08   1.9822836781266374e-02   2.0621399128925189e-02   7.6601578672554453e-03   1.3543707122340503e-02   4.4391375218117858e-06   4.0218080947222623e-02   4.5940509205794816e-02   4.8075564976828239e-03   6.1724593904286452e-02   6.3139312740089382e-02   4.5278649078460062e-02   4.3535143017708403e-02   5.0441999609614582e-02   5.3118864533844991e-02   9.3871375140371291e-05   1.8235773826882397e-03   0.0000000000000000e+00   1.4584642425401796e-03   0.0000000000000000e+00   2.6681214430580866e-03   3.1115903224788462e-03   0.0000000000000000e+00   8.5266676653352663e-02   0.0000000000000000e+00   0.0000000000000000e+00   8.4724611226756688e-02   1.0852949615337176e-03   1.4287500463065349e-03   1.4630667199522440e-02   1.4122692328666545e-02   3.5812980150382853e-02   8.5000150965793736e-06   3.3375774995253578e-02   0.0000000000000000e+00   7.3190918676684490e-03   0.0000000000000000e+00   6.8031942415440966e-03   1.8870334951727398e-03   9.6058314613317888e-02   7.2451202420519407e-05   9.7551894050336505e-05   2.1588264106548965e-06   0.0000000000000000e+00   7.3997802940309870e-03   6.2835654722076126e-02   0.0000000000000000e+00   6.4019580011775504e-02   5.9168002019005732e-02   5.7266857699490858e-02   1.9448611700690736e-03   4.7969668090801082e-03   2.3393130789136989e-03   3.0888999603580730e-03   1.3038697217041718e-02   3.8399608799660437e-02   0.0000000000000000e+00   7.4897316196850165e-04   0.0000000000000000e+00   0.0000000000000000e+00   0.0000000000000000e+00   0.0000000000000000e+00   6.3995054877644944e-04   1.8205285069840964e-02   5.3114286037022576e-02   0.0000000000000000e+00   0.0000000000000000e+00   2.0652789288215831e-02   0.0000000000000000e+00   1.7072806862046715e-02   0.0000000000000000e+00   0.0000000000000000e+00   0.0000000000000000e+00   6.5954526185934930e-04   6.2751004617574689e-04   2.2844778512389960e-02   9.0483889026083547e-04   4.9016393322929806e-02   5.2355463136895666e-02   2.0017199913975794e-02   8.5438098401623586e-04   1.0108382367282180e-03   6.6927246709096222e-02   2.8198185851375427e-05   3.2011980404235832e-05   4.0707516789954573e-02   4.2412806454779968e-02   2.2214526792097570e-02   2.9841549278075991e-02   2.5856253497645251e-02   1.6193030626067968e-03   2.7068253908649155e-04   2.8193764885610428e-05   4.3102688044037814e-06   1.5118288211398670e-04   2.4987263319042077e-04   3.7929574620755089e-03   4.9474762011433145e-02   1.1643642640314425e-04   9.6445267474863164e-02   3.8089537488138485e-03   9.6953463821551122e-02   0.0000000000000000e+00   0.0000000000000000e+00   1.4610973556514362e-02   1.3298114629405604e-02   2.7132334957011495e-02   2.8802253249656511e-02   8.7693777819316636e-03   1.9797958863009201e-03   3.6539571392160135e-03   2.9694100149719259e-02   2.8892124849281216e-02   2.3917776073566375e-03   9.5805352808481875e-02   3.7325785592879283e-03   6.2100034767731641e-02   6.6938638687372043e-02   6.2772222869655156e-02   5.5303588494392937e-02   0.0000000000000000e+00   6.3682324147582764e-02   1.4094133808365448e-02   0.0000000000000000e+00   6.9479817406996394e-03   7.0526565573717725e-02   2.3265807677197502e-04   7.0930540912679238e-02   1.4591416864476246e-04   3.5688357644115048e-03   0.0000000000000000e+00   0.0000000000000000e+00   2.0910772973832693e-03   0.0000000000000000e+00   9.8456889278146137e-02   2.3942306992003424e-02   2.2545008425839619e-02   1.9575945221902601e-02   0.0000000000000000e+00   0.0000000000000000e+00   3.7326936628599862e-04   1.7815618958954362e-02   2.0389390846540715e-03   1.1333724645248997e-04   0.0000000000000000e+00   1.6077667428217717e-04   1.9618882775893766e-03   8.5492971722290510e-05   4.4964597209332276e-03   9.9835965417896565e-04   8.8639362379257149e-04   0.0000000000000000e+00   8.7424216252156538e-03   9.4831502114119517e-02   2.2503835690154850e-02   2.4585593838163635e-02   1.9139180934308178e-02   1.6937113538041781e-02   2.3823403118822992e-03   2.3329180999725617e-03   9.6565264549334021e-02   7.6270854191405044e-02   0.0000000000000000e+00   7.8923275311415117e-02   0.0000000000000000e+00   1.5537408252905516e-04   1.6624543908179914e-04   1.6314030426003993e-02   1.8218489010392299e-02   1.0359348793200220e-01   3.6158544586469034e-02   3.8035622250036351e-02   0.0000000000000000e+00   4.9975795979583466e-02   9.5623580432226893e-02   5.2640006827430478e-05   7.4381704412457186e-02   7.9532668263301002e-05   7.0757048856897403e-02   0.0000000000000000e+00   4.9612412213062729e-02   3.1921719326836241e-03   4.9985634953150913e-02   6.8438002476645499e-02   3.4167921267476984e-03   1.7380346415368703e-06   0.0000000000000000e+00   8.8960558195911837e-02   0.0000000000000000e+00   4.8040631768673919e-06   0.0000000000000000e+00   1.1017717418223928e-05   2.4329758022453747e-02   1.9942344906865004e-02   2.1685954708230658e-02   6.9791114551807660e-04   2.1331460218439624e-02   0.0000000000000000e+00   7.9712809092071471e-02   0.0000000000000000e+00   3.7523417863942177e-03   8.6508834368117418e-02   0.0000000000000000e+00   0.0000000000000000e+00   0.0000000000000000e+00   8.1950749182759283e-02   6.4940492362675125e-03   4.8003760927823177e-03   9.7829469265292932e-03   1.1219015056340226e-02   0.0000000000000000e+00   0.0000000000000000e+00   5.8522051753969045e-03   0.0000000000000000e+00   0.0000000000000000e+00   0.0000000000000000e+00   3.7854633892484375e-03   0.0000000000000000e+00   0.0000000000000000e+00   7.9272956166018809e-07   0.0000000000000000e+00   0.0000000000000000e+00   7.8259847493932703e-04   0.0000000000000000e+00   8.7691182653199906e-04   0.0000000000000000e+00   0.0000000000000000e+00   9.5784680795533289e-03   3.2988205376824821e-02   0.0000000000000000e+00   1.7106713097165828e-04   0.0000000000000000e+00   0.0000000000000000e+00   2.7357376298211705e-02   3.0227158396041714e-02   1.5358329293425035e-02   0.0000000000000000e+00   0.0000000000000000e+00   0.0000000000000000e+00   3.1358850662851656e-02   3.7703556408439122e-03   0.0000000000000000e+00   5.7715308655309416e-03   0.0000000000000000e+00   2.0802085694313862e-03   5.7064927069275170e-03   0.0000000000000000e+00   0.0000000000000000e+00   0.0000000000000000e+00   0.0000000000000000e+00   6.7612061302003068e-04   0.0000000000000000e+00   3.8638097799445562e-02   3.9157903210663453e-02   6.6347719739994425e-04   0.0000000000000000e+00   0.0000000000000000e+00   1.3212363697792953e-07   6.4427956956791127e-04   0.0000000000000000e+00   1.4775887523964668e-02   1.6696550480453959e-02   1.1285380039172854e-02   5.1201192830630350e-04   9.1874351102894398e-03   6.6035115780351678e-04   5.7427069960353004e-04   0.0000000000000000e+00   0.0000000000000000e+00   0.0000000000000000e+00   0.0000000000000000e+00   3.9301883050981250e-02   1.9019182330390196e-03   2.1033951628692906e-03   0.0000000000000000e+00   2.8483272653302377e-03   2.8767424621196822e-03   0.0000000000000000e+00   1.0760745159991763e-03   9.0266629928317397e-04   9.9094007791926462e-04   9.4744313331440169e-04   1.4666239704317234e-02   1.6587100312927604e-02   0.0000000000000000e+00   0.0000000000000000e+00   2.4695510233820984e-05   1.6303511653121772e-02   1.9701477655358953e-02   1.7671389636065939e-04   4.0300982828390917e-03   2.6241576703843063e-02   4.1574436842469389e-03   2.3479878148316256e-04   8.5966643917067639e-02   5.6986817075354709e-03   4.6729550844069375e-03   0.0000000000000000e+00   2.8568570804646861e-02   6.0880555059228923e-03   0.0000000000000000e+00   6.8231629312724750e-04   3.1871349178590906e-02   6.6951683810105122e-04   1.8502598411197311e-03   1.9439107458164050e-03   3.5292744571239508e-02   4.1464703764463533e-02   2.9563945920571674e-04   5.7459181827529121e-05   0.0000000000000000e+00   1.0940481505804932e-03   1.7785572848715934e-03   1.7822282147586911e-03   0.0000000000000000e+00   2.0930077835555809e-05   0.0000000000000000e+00   0.0000000000000000e+00   5.1331740401826514e-03   2.5416649309621449e-03   9.5666059569577029e-03   1.1097187163918287e-02   0.0000000000000000e+00   0.0000000000000000e+00   4.4158426257733720e-03   4.4100751270442669e-03   3.0100171290972508e-02   2.8014783342670466e-02   0.0000000000000000e+00   0.0000000000000000e+00   0.0000000000000000e+00   0.0000000000000000e+00   1.5310534157522083e-02   1.3985984438551209e-02   1.4331793250339888e-02   2.8934510413783608e-02   0.0000000000000000e+00   1.2109759143327214e-02   0.0000000000000000e+00   0.0000000000000000e+00   0.0000000000000000e+00   0.0000000000000000e+00   2.5954602774921039e-03   8.8429411346870851e-02   2.6490773663404358e-04   0.0000000000000000e+00   0.0000000000000000e+00   3.0115693769764562e-04   0.0000000000000000e+00   3.0475130145034349e-03   3.0048261767471099e-03   2.8485639950482693e-02   0.0000000000000000e+00   0.0000000000000000e+00   0.0000000000000000e+00   6.6985787392928316e-04   0.0000000000000000e+00   0.0000000000000000e+00   0.0000000000000000e+00   7.0148084758725457e-02   7.1804360547527868e-02   1.0179240041111917e-05   1.5309563884816311e-05   0.0000000000000000e+00   0.0000000000000000e+00   0.0000000000000000e+00   6.1350786413074602e-04   0.0000000000000000e+00   0.0000000000000000e+00   0.0000000000000000e+00   1.0832888152354518e-02   1.5024292544743254e-02   5.0305656954566192e-04   4.8215926896978185e-04   0.0000000000000000e+00   2.3218317007617222e-02   2.2763707110051542e-02   3.1621476887908843e-03   9.4947872999268268e-02   3.2125612578480824e-03   5.9616781492069504e-02   5.8972871260305648e-02   5.8735381160434204e-02   0.0000000000000000e+00   0.0000000000000000e+00   0.0000000000000000e+00   0.0000000000000000e+00   5.9482468707665610e-02   0.0000000000000000e+00   3.2233759760796595e-03   9.8675538643352934e-02   8.3748238138758466e-02   8.3003694051900071e-04   0.000000000000