<?xml version="1.0"?>
<VTKFile type="UnstructuredGrid"  version="0.1"  >
<UnstructuredGrid>
<Piece  NumberOfPoints="4041" NumberOfCells="7528">
<Points>
<DataArray  type="Float64"  NumberOfComponents="3"  format="ascii">56818.26305072499 -2506106.549119427 0  42243.18265024776 -2506857.639328673 0  29021.82503270428 -2504261.924403077 0  16550.12421826219 -2499855.084024415 0  4655.032296222308 -2495697.422200306 0  -7261.504300492456 -2494323.621393709 0  -18625.22209185599 -2493319.244519799 0  -29276.70419068305 -2491316.102597814 0  -39371.58555411869 -2489334.610554085 0  -48872.2887625367 -2487148.664179707 0  -56975.1983834749 -2482507.606906727 0  -64856.00389190487 -2478322.793323702 0  -73044.09528138349 -2475914.932075506 0  -80956.89453806292 -2474104.027428716 0  -88297.01099239565 -2471721.028140273 0  -95122.34251075231 -2468979.68610345 0  -102033.0976717825 -2467743.453790383 0  -108667.8585333195 -2467170.433637599 0  -114915.9932325953 -2465984.168528114 0  -120845.1804641294 -2464950.543945178 0  -126578.8706923529 -2464806.636550912 0  -131905.6385080613 -2465871.725308503 0  -137064.687279085 -2466513.84235653 0  -141931.6894689468 -2467114.408289441 0  -146558.2518132151 -2467929.3528441 0  -150981.1782706213 -2468467.119438711 0  -155134.7485423184 -2469150.351715567 0  -159045.2990449393 -2470116.702174883 0  -162783.5633652424 -2470995.874606837 0  -166363.671458142 -2471566.36883454 0  -169791.2094945778 -2472089.92531744 0  -173066.7170363216 -2472372.644023074 0  -176180.8272511644 -2472318.589143077 0  -179127.4549433015 -2471957.228690146 0  -181904.9538427488 -2471408.024018189 0  -184523.0000848745 -2470783.818157519 0  -187005.1824092157 -2470191.610932166 0  -189371.4710935979 -2469697.441393066 0  -191637.2486669229 -2469286.956885205 0  -193813.7840475813 -2468932.72635197 0  -195894.9751436561 -2468622.32397195 0  -197860.5122662469 -2468356.257574914 0  -199699.8496405249 -2468131.239090017 0  -201484.3799547247 -2467852.578310028 0  -203235.1081836333 -2467477.120196301 0  -204148.4039899458 -2468231.328417643 0  -204779.4006070163 -2469477.772737175 0  -206226.3182912302 -2469895.043213626 0  -207209.0484690831 -2471050.353437294 0  -206633.7342709575 -2472198.562901576 0  -206689.2205673746 -2473699.963528 0  -207439.3355646643 -2474578.344737141 0  -208686.077261504 -2475226.075148567 0  -208911.224951669 -2476610.681926033 0  -209786.4032029276 -2477610.304923216 0  -210530.8593792382 -2478701.972600761 0  -211347.3117581898 -2479598.487775704 0  -212436.1994711102 -2480321.158208149 0  -211661.3579813032 -2481227.303558039 0  -212339.4592376566 -2482164.498648201 0  -213368.6786835724 -2482893.361192783 0  -213823.9242874084 -2483849.45466838 0  -213959.3389029546 -2484975.339969706 0  -214654.5105929325 -2485857.893728198 0  -214924.9636302208 -2486897.99052352 0  -215387.1968803907 -2487861.977722809 0  -215850.8935184235 -2488606.845677634 0  -216850.3002300822 -2488718.42607849 0  -217786.1788875306 -2488773.814743428 0  -218655.6596527224 -2488960.510713411 0  -219459.2999881662 -2489050.843080118 0  -220215.8572609511 -2489415.86959818 0  -220949.8949656503 -2489578.990779826 0  -221671.8184129359 -2489638.232601265 0  -222360.8395383537 -2489613.467831609 0  -222996.7344008797 -2489634.843068176 0  -223565.7511683207 -2489892.292788903 0  -224056.7930683517 -2490349.213746534 0  -224487.3350267241 -2490843.9928667 0  -224917.776609416 -2491084.259717198 0  -225385.9512610532 -2490939.6600004 0  -225871.0057115029 -2490692.412192973 0  -226347.6588061106 -2490593.974681439 0  -226807.4764604085 -2490599.669749292 0  -227247.6549526961 -2490611.50259405 0  -227666.4916287626 -2490611.945233863 0  -228063.1258911103 -2490614.649470013 0  -228437.2792766626 -2490619.621715965 0  -228789.0148414041 -2490611.440145575 0  -229118.6979285175 -2490579.661792117 0  -229427.7721220893 -2490551.675512337 0  -229718.2857126026 -2490575.632414152 0  -229992.0195062686 -2490686.778079117 0  -230250.5004979436 -2490869.571547285 0  -230495.0197162354 -2491060.637110347 0  -230726.6693575185 -2491208.220350035 0  -230946.3810285181 -2491273.695406383 0  -231155.1727872346 -2491240.482369016 0  -231354.5763814056 -2491151.916669652 0  -231546.3204437924 -2491058.490694704 0  -231732.1881906295 -2491000.058362073 0  -231914.0081666783 -2491009.477644776 0  -232092.2357485933 -2491100.02032591 0  -232263.9691545902 -2491246.068674924 0  -232425.9547039263 -2491419.407037552 0  -232574.5133449228 -2491597.360932464 0  -232704.8009038861 -2491776.874946281 0  -232810.4395700074 -2491960.360275827 0  -232883.2341085825 -2492150.113137818 0  -232912.9947800571 -2492348.349496039 0  -232888.518304726 -2492556.97189473 0  -232809.3398841225 -2492774.886297886 0  -232684.053466982 -2492998.772055723 0  -232523.4050637269 -2493224.618723386 0  -232341.870709994 -2493446.437774289 0  -232149.8049278373 -2493655.556957558 0  -231926.4623607639 -2493840.270994475 0  -231648.985213168 -2493990.591921999 0  -231333.5089516883 -2494114.232577013 0  -231011.2867655237 -2494226.909041754 0  -230716.5565724511 -2494352.83929517 0  -230448.2156366009 -2494566.308324145 0  -230174.691868224 -2494859.203920859 0  -229854.386277046 -2495099.245907737 0  -229456.0482055206 -2495181.232778375 0  -228998.936468587 -2495162.974046715 0  -228517.5500007842 -2495146.384058104 0  -228039.7566338337 -2495203.170887594 0  -227590.3999753736 -2495397.522350929 0  -227184.981929657 -2495766.19833274 0  -226750.2922870113 -2496024.476637892 0  -226213.5702095754 -2495994.660255382 0  -225600.3011662167 -2496052.877603892 0  -224958.9944484101 -2496261.85032066 0  -224327.7512929673 -2496330.814093316 0  -223631.5812784273 -2496280.649748585 0  -222879.2998883054 -2496301.667794817 0  -222254.9783848506 -2496634.523083093 0  -221626.1319051044 -2497065.090720322 0  -220761.0581340182 -2497211.459477382 0  -219968.5459241767 -2497393.939598728 0  -220203.5455070361 -2497899.480461085 0  -220855.9220298611 -2498603.237242675 0  -221131.2246077028 -2499252.862384938 0  -221774.7122121719 -2499660.862433717 0  -222479.7107982228 -2499760.827055608 0  -223033.1183148655 -2499984.859791101 0  -223490.2596104009 -2500462.200395656 0  -224062.3926326139 -2500600.027660071 0  -224541.1956214423 -2500228.786139573 0  -224949.7350095029 -2499888.083019758 0  -225341.0500730075 -2500225.130315016 0  -225757.1423292761 -2500548.432558256 0  -226180.3939651776 -2500786.080344201 0  -226538.177938963 -2501153.984901021 0  -226773.495284157 -2501569.98568693 0  -227039.0304909855 -2501911.932245616 0  -227468.9595916819 -2502129.814972885 0  -227798.6047508129 -2502389.299855465 0  -227884.9238541838 -2502832.388358992 0  -228126.2989976085 -2503276.196050428 0  -227861.5342855403 -2503623.445554566 0  -227372.9304734626 -2503907.390885711 0  -226957.5853764467 -2504175.647480549 0  -226606.2579015691 -2504483.304832757 0  -226161.0056828749 -2504866.856449728 0  -225815.0711509458 -2505316.314749662 0  -225762.8994468044 -2505806.079859471 0  -225997.7594286802 -2506242.915512673 0  -226398.1360973342 -2506619.148825204 0  -226765.9297719086 -2507036.084494513 0  -226845.4953021393 -2507500.960872594 0  -226465.0153921999 -2507962.631785552 0  -225845.8228635425 -2508243.541008709 0  -225251.6156104354 -2508190.021993677 0  -224690.1793840567 -2507897.641923884 0  -224100.3548492745 -2507553.624348171 0  -223414.5727227449 -2507371.21363621 0  -222654.4265297953 -2507276.075847208 0  -221912.0382560525 -2507297.337862614 0  -221266.9189332082 -2507785.266418245 0  -220681.0921292723 -2508353.609471263 0  -220062.6686429494 -2509000.329523423 0  -219236.8308144344 -2509174.655190252 0  -218255.6568359406 -2509399.603364403 0  -218572.4131759723 -2510066.725015923 0  -218861.5230561548 -2510964.91864626 0  -218883.3556157417 -2511846.204517832 0  -219353.8346553762 -2512525.731451487 0  -219963.2685976659 -2513082.42119797 0  -220488.7752431028 -2513679.96717993 0  -220885.2380172826 -2514382.263808274 0  -220990.1132767769 -2515108.665935786 0  -221485.0382534687 -2515632.998891791 0  -222155.0186764667 -2516036.139659067 0  -222390.5819874348 -2516597.550678985 0  -221683.5075769027 -2517109.541916781 0  -221049.1691573458 -2517587.936233334 0  -220341.3916149238 -2518020.204995572 0  -219495.2331410376 -2518369.688367899 0  -219546.7035698217 -2519131.218151119 0  -219685.2088385221 -2520038.091014113 0  -219723.4857113709 -2520890.499102236 0  -219511.8253665795 -2521706.050384868 0  -218768.9497051224 -2522318.273173176 0  -218062.3835558011 -2522951.471679174 0  -217792.1932780886 -2523832.754628343 0  -217721.1829300973 -2524802.156087346 0  -217105.5823664274 -2525632.89503949 0  -216114.3489158486 -2526130.198485046 0  -215762.8823642595 -2526977.667966621 0  -215624.0210213385 -2528047.606007989 0  -215626.57696477 -2529136.754249504 0  -215068.1955778405 -2530004.876344503 0  -214353.5819060722 -2530902.512838067 0  -213458.5631825881 -2531647.245829566 0  -212582.3066935458 -2532532.655828057 0  -211601.1993616105 -2533281.698502241 0  -210230.8203599756 -2533492.702960313 0  -209359.9819486135 -2532733.353591639 0  -207963.7301089823 -2532402.039407601 0  -207461.9620998055 -2533726.636299287 0  -206743.678788939 -2535012.373417936 0  -207794.6479248811 -2535697.474151645 0  -208706.2824926935 -2536681.47128792 0  -208662.8240783605 -2538140.018106792 0  -209359.9957095342 -2539157.350742796 0  -209716.6789857079 -2540401.743356431 0  -208811.4519281083 -2541468.645140812 0  -209077.7529802741 -2542648.334750617 0  -210420.4603172865 -2542562.067677911 0  -211621.9917404423 -2542541.993928391 0  -212754.33587808 -2543120.703356035 0  -212519.6312691136 -2544241.062718421 0  -213084.8685374894 -2545195.129669076 0  -214049.5779914909 -2545637.606566725 0  -215070.0904746166 -2545977.323497721 0  -215634.1102203288 -2546825.493334641 0  -215621.16885731 -2547930.190942091 0  -214942.2606588054 -2548830.648553029 0  -
[...]
<CellData  Scalars="f_393"> 
<DataArray  type="Float64"  Name="f_393"  format="ascii">1.0591806874180177e-02   0.0000000000000000e+00   7.4397248862534959e-02   7.6340253433454741e-02   6.0078993806075998e-03   6.9422167692040878e-03   1.3692544402084128e-01   3.9672474727317886e-01   1.3619801590396011e-01   3.9304634585036380e-01   2.7516264506533333e-01   1.9575161476154151e-01   9.4233833915279752e-01   9.6303057597309416e-01   7.6158328162785827e-01   2.6855729560646924e-01   6.2739766529500263e-01   6.1506732627464800e-01   2.8240958475974431e-01   6.0847924090295524e-01   6.2091955801058729e-01   5.3310418394930759e-01   2.5419225920087840e-01   1.7652830689375826e-01   4.2142955894348721e-01   2.9884729929184506e-01   4.0599569434766059e-01   1.6547564542913165e-01   1.5186806060647212e-07   0.0000000000000000e+00   6.3065534840529375e-02   3.8333773416220329e-01   5.3938059968416208e-01   5.3311489120233468e-01   5.2917886923434354e-01   1.7254534208439354e-01   5.3777580015377358e-01   2.0247496924975666e-01   4.7076303183306512e-01   4.0246242753777334e-01   6.2621053076372293e-02   4.1258185487240395e-01   2.1101601062805705e-01   6.3529548247160408e-02   4.5264929809496435e-01   3.7384838594419290e-01   3.8181738079701993e-01   2.6804078590587826e-01   4.1219760952901868e-01   5.3330629743246993e-01   5.0770335769201114e-01   4.9558530168129833e-01   4.8965662885891653e-01   1.8261897976342889e-01   5.1595767376831769e-01   1.4487473800593403e-01   1.8616481936263540e-01   5.2729839814004997e-01   5.1173234045143290e-01   4.4828932349371897e-01   3.2860616454412578e-01   3.9514653038906189e-01   4.9758169857607482e-01   2.0739584190073854e-01   6.6715380588396134e-01   7.8836533423374665e-04   7.8024444058302821e-04   6.5425738190461824e-01   7.1492351557895475e-02   2.6330723575406823e-01   2.7317916088473904e-01   2.1197316693600171e-01   1.8913792604237029e-07   2.7538102408859805e-01   4.6240879379450517e-01   3.3174707659605635e-01   3.1530295148275633e-01   1.8544241059388361e-01   5.7012076252551877e-04   4.0266295100562483e-01   1.8847865183857018e-01   3.3399625318029613e-01   2.8494374001333855e-01   5.4693228746279499e-01   5.3743899151107366e-01   8.1099751304442291e-01   7.4769625348742458e-02   3.0885017131478966e-03   4.8570430395533881e-01   5.2547303714501314e-01   1.4264739604437434e-02   1.1965381299234464e-02   4.2835228703256367e-01   2.7339355519909125e-01   5.6728490913512541e-01   4.3895454541199336e-01   1.1585504657213626e-01   4.4069222519926016e-01   1.7881995759496172e-01   3.8386218661252886e-01   6.4040608052238168e-01   5.2113225526623452e-01   5.3383630387224268e-01   6.2191485988443895e-01   3.1790561059816819e-01   3.3831738797292760e-01   6.8404871684417601e-01   5.0538825723234826e-01   6.6229565546747848e-01   5.5491481036220036e-01   6.5521266188820493e-01   7.7856093525677114e-02   7.7595335617876904e-02   5.0386345248484532e-01   6.6603542970382797e-03   5.0597708435932809e-01   2.7757612021717526e-01   2.7072075761523451e-01   4.1711229954801959e-01   4.2887554022554764e-01   5.3994942335800589e-01   5.1935525340192701e-01   5.0574641229648121e-01   4.7194045342239249e-01   1.9519907453388435e-01   4.3449253725586434e-01   2.0414662376574583e-01   9.4110675726011250e-01   8.0999774963199156e-01   8.0421643507487151e-01   5.1987567144593938e-01   5.3452192273324939e-01   5.6601486148670992e-02   3.2582582185463987e-01   7.2596708777717378e-01   4.5885927962880702e-01   7.3117584960555304e-01   6.4057508708321076e-01   6.3276680175823197e-01   6.4155403694605474e-04   1.1342759408966382e-01   1.0629140738421805e-01   2.0785951806526964e-01   3.2044587510986300e-01   6.1506173325190849e-04   5.6393564206018199e-01   5.7638743664829728e-01   2.2050241631076986e-01   4.8515998939076371e-01   6.9428267332533689e-01   5.2995756013155912e-02   3.7051760253452239e-03   4.6482153810843679e-01   4.3643281844306436e-01   2.8678750078638771e-01   5.6391774934841585e-02   3.1799539294668122e-01   2.0319371672121550e-01   9.4365936066875637e-04   8.7592496548549281e-04   3.7694243996618182e-01   4.3178764046391399e-01   3.6223648879373865e-01   6.5501843338846133e-01   2.9684712256464252e-01   6.5331601105820591e-01   6.4399284027795456e-01   4.9468474659313488e-01   5.1621615700980839e-01   2.4552573489129248e-01   1.4754155695378182e-04   5.3498184655560022e-01   5.5335711395929388e-01   8.6663425074213181e-05   3.4706412995315193e-04   5.9304490722448969e-04   1.1712943644386767e-03   6.3054388183946819e-01   5.5303093517633417e-01   8.2332136686055768e-02   4.2426024190730560e-01   8.7626182903532301e-02   2.7017906178453144e-01   9.0104191085690427e-02   7.1077933514529915e-02   8.2516425361364179e-02   6.3384894152398497e-01   1.2950600260624743e-04   4.7013094952362772e-01   1.1070186749749495e-04   6.0774296452172660e-01   5.2672465847512773e-01   5.8859566342170067e-01   3.9460406000566428e-01   4.0920239584221169e-01   3.9043624535539079e-01   2.7251314504325952e-01   1.8244602851122896e-01   3.8250346598360413e-01   3.0632109624182419e-01   3.2161607274578208e-01   2.6405804476584299e-01   1.7630526491738704e-01   3.2870792607424959e-01   7.7500793311531618e-02   6.3032623076429845e-02   3.1363606022858831e-01   9.5760568077453101e-01   4.3303431908047030e-01   2.2425950293547864e-03   3.8852816487428804e-01   4.9397841028982548e-01   5.3738957955491085e-01   5.3449570471614549e-01   3.7796503079459232e-01   5.1206125841838734e-01   3.9778769263309960e-01   4.4291952242383092e-01   1.0333204673646703e-02   8.7725085569824914e-03   3.2759436830434990e-01   8.4302449022246422e-03   6.3993142605222881e-04   6.5930053984526932e-04   5.6668401951452132e-04   2.7331553732836023e-01   4.9337506785048535e-01   1.8511226880920051e-01   6.8033935556432779e-01   4.3199427482297725e-01   4.0705072511091694e-01   3.9300736592126467e-01   3.8829182300384235e-01   4.2104503788765579e-01   6.1696693028444782e-01   6.2019410151084731e-01   3.7075653132678665e-01   7.2901648564862942e-03   6.8330689480160592e-03   5.0514242219722172e-01   5.0761120096189705e-01   6.9805689760871581e-01   6.9368423255590894e-01   6.7208509978602260e-01   7.8234812450751590e-01   4.8970345427544110e-01   4.4585555326943305e-01   5.1042360031842648e-01   4.8508366734115749e-01   4.9128070506754579e-01   4.8161111540961637e-01   5.2131333962278281e-01   1.7808312404862978e-01   1.7727708991895516e-01   4.4057854039153860e-01   5.3998540534708439e-01   4.3317230262908490e-01   5.7457044817058156e-01   5.7446582112708022e-01   5.3111989260662484e-01   5.8212088504245774e-01   3.7916671878659658e-01   6.0424756111302014e-01   3.8641708188521928e-01   2.4361579090331734e-01   6.4099769832283975e-03   7.5676220022057386e-03   9.3662191168895376e-02   2.3866031351023394e-02   4.1535588048907862e-01   8.5802630004379932e-02   2.1937713653568544e-02   2.9579550053199824e-06   3.8174315388196267e-01   1.9082379867758281e-01   2.0319234179244575e-01   2.5401886429587783e-01   2.6119165141344786e-01   7.9690837470892195e-01   3.8224026714532472e-01   1.7904541351064066e-01   4.3492401079941156e-01   1.7746327837809453e-01   4.5050991617706121e-01   4.5288128313824955e-01   4.0770449688819360e-01   1.9848653942671274e-01   4.1624260726864759e-01   5.3843183290088525e-01   6.3109217169134102e-01   5.2607363852120315e-01   3.9660925416448656e-01   4.4585463517491764e-01   6.0518278425697014e-01   5.8817139962772136e-01   6.1022526596144933e-01   4.0399818728575609e-01   6.0022130659198902e-01   5.6175145866725264e-02   3.7642375911846215e-01   2.6899672186975515e-01   3.5426288918158022e-01   3.4419105322688348e-01   4.4815975023061831e-02   1.1163914194639997e-01   2.6223115493736643e-01   2.5833985719942398e-01   3.1681055079778220e-01   2.3635702581629277e-06   7.3246667537080369e-06   8.4301468859264803e-02   3.9169850996178429e-01   4.6576341441102298e-01   3.9145778273780713e-01   6.1348298831288450e-01   7.3400766566430986e-01   5.9972946594729382e-01   5.8642486275458716e-01   6.2167113241543115e-01   6.2923465106394050e-01   3.9319249072842433e-01   4.4367188175963196e-01   7.4190702630119620e-01   2.2671539710432093e-01   7.1256735617397238e-01   6.9984591217416403e-01   7.4364822105441664e-01   7.6107205403566647e-01   2.4004423695080334e-02   3.9337819783238170e-01   4.5946844555107291e-01   5.2031985826979943e-01   6.3253398510977510e-01   6.6912495063282496e-01   2.8828589177509850e-01   3.0226755612524747e-01   2.3118169715796610e-01   2.2218210297934107e-02   5.5501987467985081e-01   5.2038941221899271e-01   7.8792038994028729e-03   8.3325247081494375e-03   3.7951751727491295e-01   3.8105485518772353e-01   1.4519583045872830e-01   6.7889359369638946e-01   2.5304072299999307e-02   2.5256116390777977e-01   2.5552320892680597e-01   6.1411640516389965e-01   6.4344642449562728e-01   7.6871748490164948e-01   5.0415373993524071e-01   6.7103188737827946e-01   6.8054796352835711e-01   6.4650470805838112e-01   6.3060080653693995e-01   2.6022608287355509e-01   8.2710530745148739e-03   8.7039362061123349e-01   2.3598584909529380e-01   5.4909824057228225e-02   5.0016047138285646e-01   4.9613156188174679e-01   6.0436358917157804e-02   1.6864334506651457e-01   1.7478977698088427e-02   1.6556760444655507e-02   3.1175880310758042e-01   3.1832737366157576e-01   4.8832247151422276e-01   7.3483023400532903e-03   4.4179962751573282e-01   7.5882402489077808e-02   4.5611193141296824e-01   4.1592413154117203e-01   1.5829908920897734e-01   1.8400625411036250e-01   4.0397359959132256e-01   2.3299143364764807e-01   2.2886479798680048e-01   2.5056094065631335e-01   1.7844473974373515e-01   4.9367063353753060e-01   3.3057887745961620e-03   2.0014081603800388e-03   2.7245459945664824e-01   2.6818163095165945e-04   8.7148106506130807e-01   2.3441306348512544e-02   4.8357522975586814e-01   3.3727746840352507e-01   3.2822908952321439e-01   5.5701009574900728e-01   5.7053975468663487e-01   5.3469893603596952e-01   5.3518613358832912e-01   3.9782526591740625e-01   3.0352325650858775e-01   4.1625450099661493e-01   7.4686772592679729e-01   7.5221487996594527e-01   7.3496227272858497e-03   7.9679211614131322e-03   5.2918999037880365e-01   5.2936730605722415e-01   8.7357094638761390e-01   5.3620331355221007e-01   3.2414416843191135e-01   5.0423673602107899e-01   4.9804628914306598e-01   4.6865511194718479e-01   3.6006329595783160e-01   3.5405763746192409e-01   4.3958148044380474e-01   4.4751167406795384e-01   4.1589141820774761e-01   4.0363133392262807e-01   6.3144929304016484e-01   6.3545132531997472e-01   2.7646081841958138e-02   3.9918347237714480e-01   7.2209391679205051e-02   6.9172053698227598e-01   7.2141067741817877e-01   9.4203558702374325e-03   2.4161358472508895e-01   5.1876673818281316e-02   4.7749653149697945e-02   2.4495551328207285e-01   7.1557261248024850e-01   3.5324064413301659e-01   5.9658247090908678e-01   6.0311670143645013e-01   4.0901567980255238e-01   4.2353200947245406e-01   4.1573952377751366e-01   9.4666827721992808e-03   5.9745051644219516e-01   1.0796948715457802e-01   6.2926371913706169e-01   6.6808163304751811e-01   1.9210769228184071e-01   2.5897973394052600e-03   2.2433014546323861e-03   1.8678728460784164e-01   1.0190029860553724e-02   6.0908179372846027e-01   3.5796510822991162e-01   5.5832233050330110e-02   3.5141332085617100e-01   3.7716321028234073e-01   3.8686545562518482e-01   4.9780496141990443e-01   6.2051265930984445e-01   5.5302208585834756e-01   6.2117915002746948e-01   5.8809073238040688e-01   4.7182158295082799e-01   5.7114458140225142e-03   7.0052276996300289e-01   2.6177837446898181e-02   1.1807022765145709e-02   6.9627062955717259e-02   4.9621853145677602e-02   2.5541379249911843e-04   6.6881655560847320e-01   3.9992156668967482e-01   1.9115518270603471e-01   2.8861081278636930e-02   4.6906558274194454e-01   6.6311718964351229e-02   3.6469995028244279e-01   1.4901079175350129e-01   6.8064709287858488e-03   7.2504729988380747e-03   3.0675315793515497e-04   8.8304843319110237e-05   4.5373937586949287e-01   6.3993187875559976e-01   3.7371640394052186e-01   3.6351117483003836e-01   7.8822741324222045e-01   6.2658707085471110e-01   6.8986958876296156e-01   5.1077872025300841e-01   5.2667167986169194e-01   5.5468534659847268e-01   4.3060588575104708e-01   4.2148547441207884e-01   5.3181559983415094e-01   5.6841496338650888e-01   5.7063511503610009e-01   6.7360818279312473e-01   4.5429939782943651e-01   3.4263723070684332e-03   5.0802837320519110e-03   2.7948118591665890e-05   4.3837927230599694e-01   7.5904509784828300e-01   5.8742671567649940e-01   3.3549265629972134e-06   1.7804789292423173e-01   7.7382895146783126e-01   1.7661385703694571e-01   4.8818354872290096e-02   4.4510688759711439e-02   5.0596758420927457e-01   5.0778806120044451e-01   4.4923090142588118e-01   4.4499258394668695e-01   8.8838150612914402e-01   3.4506487606801395e-01   7.9198454254505612e-01   7.7245453422902055e-01   7.7772729363387372e-01   6.8154254043671048e-01   1.7718141550835043e-01   7.9561721715835143e-01   3.1388289693786819e-01   3.2879017332916710e-01   3.1273523190739050e-01   3.8757716488036353e-01   3.1021979181720533e-01   3.4456189655844843e-01   6.5417207639094377e-01   2.9677278850913147e-01   4.5573002270259844e-01   2.9815639140628680e-01   2.2131667827239931e-04   2.9797682173951262e-01   1.2064310282542517e-04   6.6915243115385525e-01   1.6396980960419291e-01   1.7544472465173633e-01   4.6295589869981124e-01   3.4454971051109173e-02   1.8226628078385182e-01   7.1752421766829089e-01   7.3193952412461316e-01   8.4289177240403601e-01   1.8544478717042759e-01   1.9157811734082861e-01   3.1459315952486733e-01   8.4828854082577410e-01   4.6716304997246316e-01   2.3783265281508342e-01   8.9151679586225337e-03   3.0337058025210317e-01   6.4910452845476851e-01   2.1706951680023134e-01   6.6103853387300604e-01   2.3732830069119487e-01   2.2997894585400158e-01   5.1264322351153843e-02   8.7955429085873926e-01   2.2042335778877972e-01   5.1952604313698214e-01   5.1416137388434313e-01   5.2721081944038728e-01   5.3134113765888968e-01   8.8018257024139523e-01   8.6695165728225088e-01   1.7932235045069120e-01   2.7544917862330687e-01   1.3377527688604621e-01   2.6664530783091062e-01   1.2463832893931755e-01   1.3625222870150152e-03   1.5582055801215871e-03   5.5311598104474280e-01   5.4597561654701532e-01   1.8270105271405046e-01   5.3623634314235291e-01   5.1828498958614910e-01   6.0230352178486709e-03   4.2585199179297401e-01   1.7731104135012157e-01   2.2464674256000677e-01   2.9105386578947401e-01   2.2757079110936707e-01   3.0600104554098406e-01   1.3551612983801783e-01   3.5606244183966701e-01   6.5556273981804036e-01   6.2974740135316198e-01   3.1703129637215099e-01   6.8977886486609685e-01   1.7781066655346062e-01   1.5956064953426735e-01   2.1208958976372000e-01   8.0442428342520106e-02   3.7918108743476512e-03   8.6891270411925084e-02   3.6112145915644304e-03   5.6458904188516146e-01   5.6162083886867042e-01   5.2297733290697501e-01   2.2608733887826440e-01   5.2251090279627688e-01   1.8587893574803688e-02   2.4278703882283723e-01   2.0524678111724932e-02   7.8646489588962665e-01   2.2543353076603054e-01   2.3294177376110507e-02   2.4753025145300835e-02   3.0144529961889745e-02   2.3377072705461410e-01   5.1874916958439132e-01   5.2163483974171054e-01   5.1475702549399660e-01   5.1383771275561851e-01   2.9615373777166915e-02   6.7447306390492678e-02   8.2472025425211537e-01   3.2801943921039065e-02   1.8213437345470693e-01   1.8462517793732547e-01   6.0599931616930580e-01   1.4483024725875171e-01   1.4525533358088685e-01   5.8376984863782099e-03   1.2939833451257371e-01   1.2863425998956637e-01   2.3717099855028678e-01   9.1979216496350893e-02   6.4591822958508360e-01   1.7640466581576653e-01   1.6868634899047774e-01   3.5398531216186307e-01   4.9853727959823801e-01   7.5645367419788417e-02   3.7320167227708773e-01   4.0814709082056422e-02   8.5070663419962902e-02   4.8380273437692711e-01   4.7705058825923580e-01   3.5836406057119041e-01   2.4344694850484828e-02   1.0396433939251157e-01   1.1283234239699179e-01   4.9460328218733024e-01   6.4459808486456127e-01   4.4192624743260280e-02   8.1842208654739301e-01   1.4051887096937737e-01   4.8044111061200845e-01   8.1621321564120730e-01   7.3055267738495440e-03   7.2182961342525916e-03   7.6038478906689131e-03   7.9599847862795586e-03   3.3564725235981285e-04   4.6095206265198072e-02   3.9316344804097092e-01   3.8980655012205240e-01   7.6991966030348418e-04   8.4731410554920276e-03   1.0629528365622462e-01   5.9625252892168716e-03   5.7538020521259259e-01   1.0594156418557270e-01   7.5557487823581837e-01   7.2482417117032027e-01   7.9136556212581477e-01   1.6974004067273380e-04   7.9463335015029835e-01   5.7592202168329487e-01   5.4396251914529614e-01   6.2754975663883009e-02   1.5207411031026581e-02   1.4572177604915445e-02   3.0503977827066803e-01   3.9726078626665312e-01   6.7841663883498360e-01   6.7066948334726473e-01   6.4654690984316129e-02   5.9798888569345465e-01   5.8578333438105223e-01   1.0842289879576550e-02   5.5616754897016674e-01   3.2013460741850414e-01   3.1869574816666607e-01   5.3438832164573624e-01   7.3480628070418996e-01   7.3688033395716379e-01   2.8651894019677382e-02   3.0543669691942638e-02   6.3223644796953265e-03   5.5061491988488309e-01   5.4353825710537285e-01   3.4467399655804093e-01   7.4356706248498794e-01   5.1179830661356862e-01   7.5866513455982743e-01   1.9861790938515192e-04   2.5345458597094905e-01   5.6842946535928007e-01   5.7863596206644319e-01   1.3254700135306441e-02   7.3154146870202763e-01   7.5623317250516098e-01   1.3577657922457350e-02   4.8124229332271605e-04   6.9011257868042852e-01   5.5589417897283376e-04   3.6998235095602527e-01   3.8250697602223210e-01   6.2710170310048174e-01   6.0257126670803240e-01   3.0954936480385401e-04   4.8551448751534276e-03   1.5509459897565261e-02   6.2251856258759464e-01   2.9589227717049105e-01   2.9939568537827776e-01   6.8849903784527183e-02   4.0541049033425668e-03   1.3496317300916780e-01   1.3909485382670259e-01   5.5827196955708103e-01   5.6829058224998974e-01   5.4393917380518575e-01   5.3897510355251221e-01   7.7255026321744316e-02   6.5025481982154701e-02   7.3089615316334633e-01   7.1421666414865403e-01   4.6864162695658823e-01   4.9963960426003651e-01   1.4011997986491445e-01   1.0293227705950894e-02   2.0236238228529152e-01   2.0005533806395392e-01   5.1469760560547750e-01   5.1384359999026419e-01   5.1885726916516783e-01   7.2096410619829665e-01   2.0948829853074499e-02   5.2057918385013513e-01   6.4675623217911371e-02   1.4294415533828259e-01   1.4038063456593047e-01   1.5164162806554116e-01   2.8998614119712207e-01   2.4309249020593107e-01   2.6975724590951413e-04   5.5659094587195798e-02   5.9839313409370445e-02   3.7861961704078645e-01   2.0171858423744315e-02   5.1962481976720554e-01   5.0388954649646645e-01   4.9955229148888475e-01   6.3173241062499871e-03   7.8865307519495297e-03   1.0759887268187458e-02   7.1344604616584194e-04   8.4513266862159236e-02   1.1766567356726575e-01   1.2364619141424381e-01   3.2167506961387621e-01   3.1483532489745714e-01   0.0000000000000000e+00   0.0000000000000000e+00   1.1931325248022123e-02   1.1129867145366176e-02   4.2545652891695970e-02   5.6784481809181830e-01   8.1424983504959234e-02   2.2281411711376899e-02   6.9374879398334836e-03   8.2849944710415491e-01   8.1492727698902367e-01   8.7574079267655315e-04   8.4186337478763863e-04   6.3539965600534723e-02   8.1129755206180709e-01   8.1788933366532868e-01   6.9961255482282581e-01   1.8207001551559654e-01   4.9868114428523169e-01   2.9962461128676476e-01   4.8207025154284133e-01   4.7783309018967168e-01   1.0671631570093142e-01   3.3176439895861540e-02   1.0046746402084727e-01   2.8879767572948908e-02   2.9900056990711099e-01   3.9362977421343967e-02   4.9220561141535213e-01   1.7467104649100473e-01   2.4203635736927182e-01   6.1470657608370849e-01   7.115085984207