<?xml version="1.0"?>
<VTKFile type="UnstructuredGrid"  version="0.1"  >
<UnstructuredGrid>
<Piece  NumberOfPoints="4041" NumberOfCells="7528">
<Points>
<DataArray  type="Float64"  NumberOfComponents="3"  format="ascii">56818.26305072499 -2506106.549119427 0  42243.18265024776 -2506857.639328673 0  29021.82503270428 -2504261.924403077 0  16550.12421826219 -2499855.084024415 0  4655.032296222308 -2495697.422200306 0  -7261.504300492456 -2494323.621393709 0  -18625.22209185599 -2493319.244519799 0  -29276.70419068305 -2491316.102597814 0  -39371.58555411869 -2489334.610554085 0  -48872.2887625367 -2487148.664179707 0  -56975.1983834749 -2482507.606906727 0  -64856.00389190487 -2478322.793323702 0  -73044.09528138349 -2475914.932075506 0  -80956.89453806292 -2474104.027428716 0  -88297.01099239565 -2471721.028140273 0  -95122.34251075231 -2468979.68610345 0  -102033.0976717825 -2467743.453790383 0  -108667.8585333195 -2467170.433637599 0  -114915.9932325953 -2465984.168528114 0  -120845.1804641294 -2464950.543945178 0  -126578.8706923529 -2464806.636550912 0  -131905.6385080613 -2465871.725308503 0  -137064.687279085 -2466513.84235653 0  -141931.6894689468 -2467114.408289441 0  -146558.2518132151 -2467929.3528441 0  -150981.1782706213 -2468467.119438711 0  -155134.7485423184 -2469150.351715567 0  -159045.2990449393 -2470116.702174883 0  -162783.5633652424 -2470995.874606837 0  -166363.671458142 -2471566.36883454 0  -169791.2094945778 -2472089.92531744 0  -173066.7170363216 -2472372.644023074 0  -176180.8272511644 -2472318.589143077 0  -179127.4549433015 -2471957.228690146 0  -181904.9538427488 -2471408.024018189 0  -184523.0000848745 -2470783.818157519 0  -187005.1824092157 -2470191.610932166 0  -189371.4710935979 -2469697.441393066 0  -191637.2486669229 -2469286.956885205 0  -193813.7840475813 -2468932.72635197 0  -195894.9751436561 -2468622.32397195 0  -197860.5122662469 -2468356.257574914 0  -199699.8496405249 -2468131.239090017 0  -201484.3799547247 -2467852.578310028 0  -203235.1081836333 -2467477.120196301 0  -204148.4039899458 -2468231.328417643 0  -204779.4006070163 -2469477.772737175 0  -206226.3182912302 -2469895.043213626 0  -207209.0484690831 -2471050.353437294 0  -206633.7342709575 -2472198.562901576 0  -206689.2205673746 -2473699.963528 0  -207439.3355646643 -2474578.344737141 0  -208686.077261504 -2475226.075148567 0  -208911.224951669 -2476610.681926033 0  -209786.4032029276 -2477610.304923216 0  -210530.8593792382 -2478701.972600761 0  -211347.3117581898 -2479598.487775704 0  -212436.1994711102 -2480321.158208149 0  -211661.3579813032 -2481227.303558039 0  -212339.4592376566 -2482164.498648201 0  -213368.6786835724 -2482893.361192783 0  -213823.9242874084 -2483849.45466838 0  -213959.3389029546 -2484975.339969706 0  -214654.5105929325 -2485857.893728198 0  -214924.9636302208 -2486897.99052352 0  -215387.1968803907 -2487861.977722809 0  -215850.8935184235 -2488606.845677634 0  -216850.3002300822 -2488718.42607849 0  -217786.1788875306 -2488773.814743428 0  -218655.6596527224 -2488960.510713411 0  -219459.2999881662 -2489050.843080118 0  -220215.8572609511 -2489415.86959818 0  -220949.8949656503 -2489578.990779826 0  -221671.8184129359 -2489638.232601265 0  -222360.8395383537 -2489613.467831609 0  -222996.7344008797 -2489634.843068176 0  -223565.7511683207 -2489892.292788903 0  -224056.7930683517 -2490349.213746534 0  -224487.3350267241 -2490843.9928667 0  -224917.776609416 -2491084.259717198 0  -225385.9512610532 -2490939.6600004 0  -225871.0057115029 -2490692.412192973 0  -226347.6588061106 -2490593.974681439 0  -226807.4764604085 -2490599.669749292 0  -227247.6549526961 -2490611.50259405 0  -227666.4916287626 -2490611.945233863 0  -228063.1258911103 -2490614.649470013 0  -228437.2792766626 -2490619.621715965 0  -228789.0148414041 -2490611.440145575 0  -229118.6979285175 -2490579.661792117 0  -229427.7721220893 -2490551.675512337 0  -229718.2857126026 -2490575.632414152 0  -229992.0195062686 -2490686.778079117 0  -230250.5004979436 -2490869.571547285 0  -230495.0197162354 -2491060.637110347 0  -230726.6693575185 -2491208.220350035 0  -230946.3810285181 -2491273.695406383 0  -231155.1727872346 -2491240.482369016 0  -231354.5763814056 -2491151.916669652 0  -231546.3204437924 -2491058.490694704 0  -231732.1881906295 -2491000.058362073 0  -231914.0081666783 -2491009.477644776 0  -232092.2357485933 -2491100.02032591 0  -232263.9691545902 -2491246.068674924 0  -232425.9547039263 -2491419.407037552 0  -232574.5133449228 -2491597.360932464 0  -232704.8009038861 -2491776.874946281 0  -232810.4395700074 -2491960.360275827 0  -232883.2341085825 -2492150.113137818 0  -232912.9947800571 -2492348.349496039 0  -232888.518304726 -2492556.97189473 0  -232809.3398841225 -2492774.886297886 0  -232684.053466982 -2492998.772055723 0  -232523.4050637269 -2493224.618723386 0  -232341.870709994 -2493446.437774289 0  -232149.8049278373 -2493655.556957558 0  -231926.4623607639 -2493840.270994475 0  -231648.985213168 -2493990.591921999 0  -231333.5089516883 -2494114.232577013 0  -231011.2867655237 -2494226.909041754 0  -230716.5565724511 -2494352.83929517 0  -230448.2156366009 -2494566.308324145 0  -230174.691868224 -2494859.203920859 0  -229854.386277046 -2495099.245907737 0  -229456.0482055206 -2495181.232778375 0  -228998.936468587 -2495162.974046715 0  -228517.5500007842 -2495146.384058104 0  -228039.7566338337 -2495203.170887594 0  -227590.3999753736 -2495397.522350929 0  -227184.981929657 -2495766.19833274 0  -226750.2922870113 -2496024.476637892 0  -226213.5702095754 -2495994.660255382 0  -225600.3011662167 -2496052.877603892 0  -224958.9944484101 -2496261.85032066 0  -224327.7512929673 -2496330.814093316 0  -223631.5812784273 -2496280.649748585 0  -222879.2998883054 -2496301.667794817 0  -222254.9783848506 -2496634.523083093 0  -221626.1319051044 -2497065.090720322 0  -220761.0581340182 -2497211.459477382 0  -219968.5459241767 -2497393.939598728 0  -220203.5455070361 -2497899.480461085 0  -220855.9220298611 -2498603.237242675 0  -221131.2246077028 -2499252.862384938 0  -221774.7122121719 -2499660.862433717 0  -222479.7107982228 -2499760.827055608 0  -223033.1183148655 -2499984.859791101 0  -223490.2596104009 -2500462.200395656 0  -224062.3926326139 -2500600.027660071 0  -224541.1956214423 -2500228.786139573 0  -224949.7350095029 -2499888.083019758 0  -225341.0500730075 -2500225.130315016 0  -225757.1423292761 -2500548.432558256 0  -226180.3939651776 -2500786.080344201 0  -226538.177938963 -2501153.984901021 0  -226773.495284157 -2501569.98568693 0  -227039.0304909855 -2501911.932245616 0  -227468.9595916819 -2502129.814972885 0  -227798.6047508129 -2502389.299855465 0  -227884.9238541838 -2502832.388358992 0  -228126.2989976085 -2503276.196050428 0  -227861.5342855403 -2503623.445554566 0  -227372.9304734626 -2503907.390885711 0  -226957.5853764467 -2504175.647480549 0  -226606.2579015691 -2504483.304832757 0  -226161.0056828749 -2504866.856449728 0  -225815.0711509458 -2505316.314749662 0  -225762.8994468044 -2505806.079859471 0  -225997.7594286802 -2506242.915512673 0  -226398.1360973342 -2506619.148825204 0  -226765.9297719086 -2507036.084494513 0  -226845.4953021393 -2507500.960872594 0  -226465.0153921999 -2507962.631785552 0  -225845.8228635425 -2508243.541008709 0  -225251.6156104354 -2508190.021993677 0  -224690.1793840567 -2507897.641923884 0  -224100.3548492745 -2507553.624348171 0  -223414.5727227449 -2507371.21363621 0  -222654.4265297953 -2507276.075847208 0  -221912.0382560525 -2507297.337862614 0  -221266.9189332082 -2507785.266418245 0  -220681.0921292723 -2508353.609471263 0  -220062.6686429494 -2509000.329523423 0  -219236.8308144344 -2509174.655190252 0  -218255.6568359406 -2509399.603364403 0  -218572.4131759723 -2510066.725015923 0  -218861.5230561548 -2510964.91864626 0  -218883.3556157417 -2511846.204517832 0  -219353.8346553762 -2512525.731451487 0  -219963.2685976659 -2513082.42119797 0  -220488.7752431028 -2513679.96717993 0  -220885.2380172826 -2514382.263808274 0  -220990.1132767769 -2515108.665935786 0  -221485.0382534687 -2515632.998891791 0  -222155.0186764667 -2516036.139659067 0  -222390.5819874348 -2516597.550678985 0  -221683.5075769027 -2517109.541916781 0  -221049.1691573458 -2517587.936233334 0  -220341.3916149238 -2518020.204995572 0  -219495.2331410376 -2518369.688367899 0  -219546.7035698217 -2519131.218151119 0  -219685.2088385221 -2520038.091014113 0  -219723.4857113709 -2520890.499102236 0  -219511.8253665795 -2521706.050384868 0  -218768.9497051224 -2522318.273173176 0  -218062.3835558011 -2522951.471679174 0  -217792.1932780886 -2523832.754628343 0  -217721.1829300973 -2524802.156087346 0  -217105.5823664274 -2525632.89503949 0  -216114.3489158486 -2526130.198485046 0  -215762.8823642595 -2526977.667966621 0  -215624.0210213385 -2528047.606007989 0  -215626.57696477 -2529136.754249504 0  -215068.1955778405 -2530004.876344503 0  -214353.5819060722 -2530902.512838067 0  -213458.5631825881 -2531647.245829566 0  -212582.3066935458 -2532532.655828057 0  -211601.1993616105 -2533281.698502241 0  -210230.8203599756 -2533492.702960313 0  -209359.9819486135 -2532733.353591639 0  -207963.7301089823 -2532402.039407601 0  -207461.9620998055 -2533726.636299287 0  -206743.678788939 -2535012.373417936 0  -207794.6479248811 -2535697.474151645 0  -208706.2824926935 -2536681.47128792 0  -208662.8240783605 -2538140.018106792 0  -209359.9957095342 -2539157.350742796 0  -209716.6789857079 -2540401.743356431 0  -208811.4519281083 -2541468.645140812 0  -209077.7529802741 -2542648.334750617 0  -210420.4603172865 -2542562.067677911 0  -211621.9917404423 -2542541.993928391 0  -212754.33587808 -2543120.703356035 0  -212519.6312691136 -2544241.062718421 0  -213084.8685374894 -2545195.129669076 0  -214049.5779914909 -2545637.606566725 0  -215070.0904746166 -2545977.323497721 0  -215634.1102203288 -2546825.493334641 0  -215621.16885731 -2547930.190942091 0  -214942.2606588054 -2548830.648553029 0  -
[...]
<CellData  Scalars="f_405"> 
<DataArray  type="Float64"  Name="f_405"  format="ascii">1.4667908779233421e+00   0.0000000000000000e+00   3.0233107445863294e+00   3.0591391782409429e+00   8.9686260057391842e-01   9.4560041370008563e-01   3.8011446502708655e+00   4.3417836400168426e+00   3.7841947344421243e+00   4.2355086525272236e+00   5.0432520572584423e+00   8.3180297425764138e-01   8.3376947011925200e+00   8.4006051825082899e+00   7.5885388350254956e+00   5.0230807472700665e+00   7.2997461484258892e+00   7.2312379881390978e+00   5.1442249854842563e+00   6.7491670013460254e+00   6.8189545157035756e+00   3.9622937090323664e+00   1.6665975896322882e+00   4.2838270064330066e+00   5.0530122712610908e+00   5.0660596137436622e+00   4.7440138659604898e+00   4.1079443275361811e+00   0.0000000000000000e+00   0.0000000000000000e+00   2.8565511696907677e+00   3.7945293618045066e+00   5.9194361894887173e+00   5.8634021850846825e+00   5.7606175808478035e+00   4.2568949465781518e+00   6.7619391826082937e+00   9.2809989414997618e-01   6.5288371256415703e+00   4.5965482907319508e+00   2.9013670435638104e+00   4.9025375931989723e+00   1.0564514919047969e+00   2.8834737766428997e+00   6.4269014103770061e+00   4.4794033603437793e+00   4.6151023211255282e+00   1.8872079648789528e+00   6.0011546185514657e+00   4.9257776643214459e+00   4.3467675496292131e+00   4.1383222615720694e+00   4.0014759739943004e+00   6.4225995052675855e-01   4.0475390194504239e+00   3.7921548663949634e+00   6.1335993895716279e-01   6.8439695404362473e+00   6.7590850711360568e+00   6.1805996581250646e+00   5.3953741112696090e+00   4.5326646061812577e+00   4.9517344236458225e+00   9.4489558377332306e-01   6.2811880425768667e+00   3.5922202120863937e-02   3.1098845723430871e-02   6.2639446247024821e+00   2.9710013112087821e+00   1.8545828474018435e+00   2.0029014615107670e+00   1.3276631964862706e+00   0.0000000000000000e+00   5.1783318095206434e+00   3.3073585017079310e+00   2.3383136006773984e+00   1.9319063749424006e+00   6.9240651330346159e-01   1.1529374838092918e-01   4.6403718223201063e+00   7.2490714919965460e-01   2.3747222180359238e+00   2.7659086687329570e+00   6.3286127425090308e+00   6.2173214085407054e+00   7.8666744691142565e+00   3.0354968108051770e+00   7.9404151116478228e-01   6.0406764836734546e+00   3.9235288187487281e+00   1.7883588811073599e+00   1.7204442950545118e+00   5.3742641044001100e+00   2.5473338216852017e+00   4.4039817011151356e+00   5.5993585845374225e+00   3.6473892138956008e+00   5.6471530658244582e+00   6.2352292379006591e-01   4.1084123372023340e+00   6.7871195540090472e+00   5.8499829309775704e+00   6.0678821607101012e+00   6.5842983875885484e+00   3.4953031635527396e+00   3.7060049829896675e+00   6.2237423132772864e+00   5.5593847804057805e+00   5.9509391324202401e+00   6.7154245604498053e+00   7.3976851770918950e+00   3.1029273236250354e+00   3.1071574282644709e+00   6.5321091451304447e+00   1.0657071500285076e+00   6.5686300868247312e+00   5.2290525172016924e+00   5.1750763304923240e+00   4.5854080280763547e+00   4.7664822283056738e+00   6.1549107758754902e+00   6.7732838042545094e+00   6.7082302822151281e+00   6.1032311096086884e+00   4.4196705085575561e+00   5.3645694686732410e+00   4.4973191192354980e+00   8.3342316275071422e+00   7.9618725804812396e+00   7.9109349782846481e+00   5.9553903845850487e+00   5.9568849826851746e+00   2.8332053996898634e+00   5.5597146877283636e+00   7.4150632175699380e+00   4.8408716896892763e+00   7.5201171393589066e+00   6.5822983315819208e+00   6.3475135524371034e+00   6.7556607587104228e-03   3.5329107805694195e+00   3.4727456509469463e+00   4.4900229397832927e+00   5.4247043258639502e+00   6.4803692505480820e-02   6.9992556249421245e+00   7.0514278159234589e+00   1.3905148349839589e+00   5.1720716918107890e+00   6.4984180898392676e+00   2.6349610655675857e+00   7.9960337142730042e-01   3.3908444900118044e+00   3.1070400956870032e+00   2.1819247308176757e+00   2.7031954859302578e+00   2.6730368939878764e+00   4.5979556388309364e+00   3.7179923848529695e-02   4.3087567971984216e-02   5.7809229191002078e+00   5.8059273918298766e+00   5.7094906856723746e+00   7.0625513910168687e+00   5.1617959560265252e+00   7.0208888560461729e+00   7.0824987615552528e+00   4.1107588919386897e+00   4.4470328855864825e+00   2.0020303551683654e+00   3.7377162686509868e-01   5.5189941779412264e+00   5.7801871997420804e+00   3.7823748906836008e-01   1.5965876485416652e-01   5.6898915461498389e-02   5.4278393928328827e-01   5.0448496473727520e+00   6.1478272246817456e+00   3.1907398382651735e+00   6.0822184992154398e+00   3.2037502580802291e+00   1.0189224084544843e+00   3.2057180306429975e+00   2.9351039168075301e+00   3.0902089184218182e+00   7.1102726759922819e+00   2.7678231698634465e-01   6.2845814245286933e+00   2.8349724494938999e-01   6.2367065041681418e+00   6.8161086537867863e+00   6.1131748162950554e+00   5.9380536049679398e+00   5.8941427405562719e+00   5.9046800537718171e+00   5.1416517820185828e+00   5.7812556193847309e-01   5.7630722214896855e+00   2.5101089545231323e+00   2.7432298718677122e+00   2.2726751116060027e+00   4.9017009628195007e-01   2.8535944944976679e+00   3.0305104732456507e+00   2.9737996749266671e+00   2.6229379006684299e+00   8.2894929625436546e+00   4.9064735769863397e+00   7.3147329678211626e-01   4.3225013681644020e+00   5.4255385347987986e+00   6.6924286023586532e+00   6.7171798307003936e+00   3.9570799445152023e+00   5.6292716601179107e+00   5.7184910980354982e+00   5.4535589231330910e+00   1.3057742844494302e+00   1.3297186138317680e+00   5.5580548808391486e+00   1.2829104263392481e+00   6.8749739601795395e-02   9.5926009037239759e-02   7.9718197265766108e-02   4.9177727664262854e+00   5.5627256107606531e+00   7.5366221009241907e-01   6.4072911954350538e+00   6.2405644953090089e+00   3.0968523290283470e+00   5.7402770368614009e+00   2.7844483199528680e+00   6.1811469464289051e+00   6.9015477407207584e+00   6.9889873841723329e+00   5.6829922125048542e+00   8.5312204328731245e-01   8.4038667300218828e-01   5.7233817442864625e+00   5.6991950119418906e+00   7.3871598816735426e+00   7.2860324230446629e+00   6.2590026815055504e+00   7.2817429538692773e+00   6.0992835207575924e+00   5.8778171047439516e+00   6.2261403775844695e+00   6.1352214897905561e+00   5.9313021583735619e+00   6.0478258167773866e+00   5.8284729514059936e+00   6.5509428672991954e-01   6.4190904939358440e-01   3.1723236909504533e+00   5.8327729653298412e+00   3.0410481778206466e+00   4.7845878885722986e+00   4.8898002844994668e+00   6.4642498730950955e+00   5.4773680689279214e+00   3.6299076076710453e+00   5.6049352005086988e+00   3.7429563434686970e+00   4.7014166202681231e+00   9.3138160792503499e-01   1.1557055605377482e+00   3.3075783554805485e+00   2.0266796811863346e+00   2.6955009311107339e+00   3.2461594955436262e+00   1.9702220845716856e+00   0.0000000000000000e+00   2.2554521763592037e+00   6.7676716671853887e-01   1.1436892062301198e+00   1.7750809454401741e+00   1.9047596352564360e+00   7.3222491502917739e+00   3.6829147332702492e+00   6.6894429818047063e-01   6.1289924578221022e+00   6.4364814069811860e-01   4.7429616544545468e+00   6.4404546626615140e+00   4.0789890935864657e+00   1.0494412460805616e+00   4.2112362140358837e+00   6.4218218630888355e+00   6.6992575716814899e+00   6.1603046685031693e+00   5.2129419803069226e+00   5.5195946812265424e+00   7.1765711344864300e+00   7.0694277773471939e+00   7.0820445089404247e+00   5.3317310263650883e+00   6.8999690129101010e+00   2.8149867056299440e+00   5.4935106305407739e+00   1.9259488268392748e+00   3.2508613820244081e+00   3.0949840406520304e+00   2.5851843727666686e+00   3.6340644401278124e+00   2.2653800509604252e+00   2.1856043540577779e+00   5.1725128023145501e+00   3.6655725208139812e-07   4.2608356096012484e-06   3.2972293049498718e+00   4.6591126166549195e+00   6.2549904927962370e+00   3.7979509639612501e+00   6.4791060791540991e+00   7.6476776901471393e+00   6.4669590808703425e+00   6.2479046937831102e+00   6.8690413284427763e+00   7.0160841860322325e+00   4.6763262218571020e+00   6.1901500737632658e+00   7.7045324633897829e+00   1.6091324978054828e+00   7.1613304249942713e+00   7.1563334316924205e+00   7.2401207344133001e+00   7.3057330710721473e+00   1.9266773081388842e+00   3.8246900229184901e+00   6.2674775315760094e+00   5.9099609915834321e+00   5.5290282646485451e+00   5.9585788508964672e+00   5.2532313379882263e+00   5.3651952197278368e+00   1.6944405121468946e+00   1.8628810645963392e+00   4.3546676846144772e+00   3.9849311822595164e+00   1.3178150987443087e+00   1.3448799635791282e+00   2.2435821411833423e+00   2.2901374440356830e+00   3.8029695326261859e+00   7.4431354005055637e+00   1.9911388311866109e+00   1.3701307582713245e+00   1.3934501162929804e+00   4.9737269618611775e+00   5.2788624658364576e+00   7.5597211752989191e+00   5.7633846860665683e+00   6.8873921097499124e+00   7.0383944581786153e+00   6.5003075233287877e+00   6.2558108560216033e+00   1.7925765145953789e+00   1.1182887121711289e+00   8.0402627519349004e+00   4.8061740885524609e+00   2.7798332781198374e+00   5.6464590037999898e+00   5.5611555072273431e+00   2.8926330579077075e+00   4.0944401955757179e+00   1.8682545076385799e+00   1.8641384920746225e+00   1.9342994077831239e+00   1.9917393318466967e+00   6.4572905406259808e+00   1.1140224777094001e+00   4.6051433339135350e+00   3.0521211103655821e+00   4.8283424425099462e+00   4.2016483477506696e+00   3.9852370013081626e+00   7.3388904686172574e-01   4.0159080181877700e+00   1.7016153632053204e+00   1.6168873278516642e+00   4.7429101126580813e+00   4.4166183258669287e+00   5.6335030232491938e+00   6.0114658969068335e-01   5.1183506945452562e-01   4.8874908486745561e+00   1.7138160459350896e-01   7.4882785346813296e+00   1.9219036061939492e+00   5.4443124202790365e+00   5.6373692310781962e+00   5.6340284536655503e+00   6.9262882013246410e+00   6.9943251388331351e+00   6.6161982697342125e+00   6.5586509815542007e+00   5.8169979127364568e+00   3.4266610067835814e+00   5.9347492723786681e+00   7.2059768210597053e+00   7.2200588035700539e+00   7.5584455174221143e-01   8.1690996604998833e-01   6.1770130032895372e+00   6.1360397043442516e+00   8.0021625944474213e+00   6.4956220367701825e+00   5.5138690212651618e+00   4.7456787685403725e+00   4.4861756789869549e+00   6.1261520312093101e+00   3.3336025595899876e+00   3.2429110442728257e+00   4.5567072890598039e+00   4.6754774048787056e+00   4.1961996407144140e+00   4.0086086994678984e+00   7.2966924473268628e+00   7.2509412913476350e+00   2.0598547996810237e+00   5.8603639814529860e+00   3.0726443323614996e+00   7.0664531074894796e+00   7.1537954693574530e+00   1.2442411274917129e+00   1.7784547958499122e+00   2.5861603394990911e+00   2.4740221907857189e+00   1.8351521749200064e+00   7.5702294656279641e+00   5.5925007312027564e+00   6.1562968542539460e+00   6.2095371957497401e+00   4.8728125981343968e+00   6.1055314544996655e+00   4.9921842869803488e+00   9.8627421273479765e-01   6.4828916709808757e+00   3.6254929999213736e+00   6.6576081188704777e+00   6.9864335432994533e+00   8.6395241311521687e-01   5.0297943591457361e-01   4.4419009471847015e-01   4.3171645683344142e+00   1.0705850262135297e+00   6.9675905163000795e+00   3.3058562766044020e+00   2.7572583078738133e+00   3.2041764352216462e+00   3.6037421591827679e+00   3.7545018733788309e+00   6.1488113641975524e+00   7.1400296738043370e+00   6.4465902747029995e+00   7.2268065655788973e+00   6.6078733661735001e+00   5.0448664393498346e+00   9.7010946679993137e-01   7.5294539062299712e+00   1.9998978601194979e+00   1.5253035706581028e+00   2.9358741771720664e+00   2.6509367390073977e+00   3.3962041071101268e-04   6.1678192818156230e+00   3.9355453698367020e+00   4.3186490007100753e+00   2.0696387692159455e+00   5.4586107548092784e+00   2.8723798222256391e+00   4.8826662870503466e+00   4.1675259561409508e+00   8.7742660678971962e-01   9.0288433474995122e-01   3.1516710386291695e-04   6.0743437507017002e-05   5.2866875422547110e+00   7.3415737195014374e+00   4.3103262448519937e+00   4.0997106701106292e+00   7.1010204064077369e+00   7.2651517367415028e+00   7.5115627678197825e+00   3.7847833905712620e+00   6.7129629537911741e+00   6.8690536558468933e+00   4.6323354992376036e+00   4.5048898083031030e+00   6.1326488760399087e+00   5.6732457045927536e+00   5.8562191376933752e+00   7.4391600728932179e+00   6.3621847345829341e+00   5.2549553726686660e-01   6.8371419119641164e-01   2.8202538332023414e-01   6.2617417009918181e+00   7.5132406576965947e+00   4.9464587784315279e+00   3.0958404176465820e-01   6.0560371091319920e-01   7.5838772512105654e+00   5.7263670138370781e-01   2.6032993301073972e+00   2.5128327934590167e+00   6.2418383383170886e+00   6.3045011488749729e+00   5.5176478735493557e+00   5.4033243109763083e+00   8.0205805197363365e+00   5.3811052195419649e+00   7.6821770957389672e+00   6.4756959409635000e+00   6.5338535309426664e+00   7.0721427911943726e+00   5.8910779987598993e-01   7.6932357776403304e+00   3.2721755582412202e+00   2.8421574088695101e+00   3.2442453803380720e+00   3.7292188151758188e+00   5.3720401686777102e+00   3.0749887142608756e+00   6.5152394018911952e+00   5.2539135252345197e+00   5.9769888983585036e+00   2.8643936452730565e+00   2.2961011218752825e-01   2.8505891794446017e+00   2.6680487442108014e-01   7.0701450335032430e+00   4.3010719122871341e+00   4.4246755328495082e+00   6.5202807373440699e+00   2.1934605660756463e+00   7.0121944549590909e-01   6.6639857409151322e+00   6.7888321631291975e+00   7.2858113437686978e+00   4.3355568798634687e+00   4.4091331132224587e+00   5.1641731914793292e+00   7.3865222774156223e+00   6.5636176837458216e+00   4.7490021715106243e+00   1.0575047761802931e+00   5.3900716377276598e+00   6.9645500314863202e+00   4.5894052112604076e+00   6.8798228237535692e+00   4.8303475580540445e+00   4.8037693322190460e+00   2.6093995733475963e+00   7.9770951827884273e+00   1.1540009247915533e+00   6.0562903670755448e+00   5.9364219211361515e+00   6.2447954057559656e+00   6.3631229144951629e+00   8.2706580897484354e+00   8.2082604539879842e+00   6.2525967108819036e-01   2.4325759682157755e+00   3.8302779074008506e+00   2.2543857349505694e+00   3.7443179357284064e+00   3.2417027251656899e-01   3.1454396124223205e-01   6.5390398308425404e+00   6.4057834220225214e+00   5.4815033159522775e-01   4.9037270581218975e+00   4.7266052755991170e+00   9.3666803532659826e-01   4.3693250004243502e+00   5.6597726015087335e-01   4.7560441589751559e+00   2.2727607369505964e+00   4.7806316494452297e+00   2.4888257930174382e+00   4.0191813245990922e+00   3.8930570347952123e+00   7.0005284162847117e+00   4.9852312780008194e+00   2.6647519199474576e+00   7.1784439540231393e+00   4.4561421276362525e+00   4.3003218988846870e+00   1.0855794432242041e+00   3.2260830441114989e+00   6.7162595651578549e-01   3.3150275163476537e+00   6.5606628251158428e-01   5.5895396127462353e+00   5.7629433762699449e+00   6.0759349131613636e+00   4.7905272087658233e+00   6.0984570413427424e+00   1.7027792651313942e+00   1.8858509132567880e+00   1.7234719557121396e+00   7.6471600626682443e+00   1.2850368814534079e+00   2.0033586478438608e+00   2.0555135655918084e+00   2.1259577619412959e+00   1.7093507029076713e+00   6.6792195532912855e+00   6.7667905576269307e+00   6.5192091169180753e+00   6.4554852243210750e+00   2.1109103389505885e+00   2.8717605597578166e+00   7.4239361434457827e+00   2.0964959026635479e+00   4.2887537013167822e+00   4.3170224598616169e+00   7.0679604741160258e+00   3.8113067437642503e+00   3.8107419994289575e+00   8.5553703123610569e-01   3.6352332089233688e+00   3.6157169921287413e+00   4.8898044345509613e+00   3.4357733768357672e+00   7.3360234222626532e+00   4.1872439151816705e+00   4.0973109093612941e+00   5.4008432601420360e+00   5.5441870184211233e+00   3.1561569011161992e+00   5.8068020664837769e+00   2.4695409069273278e+00   3.2912534012669190e+00   5.5552024673091882e+00   5.3865179429682968e+00   5.2063021981829767e+00   2.0496788912714661e+00   3.4980575296513692e+00   3.6097747267510947e+00   5.5497909054637278e+00   6.8622722600249242e+00   2.5527338795698959e+00   7.9048209876431930e+00   3.7347191732171736e+00   6.6384315468373156e+00   7.8919520092943314e+00   1.2312067671897418e+00   1.2325030163771826e+00   1.2374781561399983e+00   1.2446269092927729e+00   4.7006959731804614e-04   2.5734146843957726e+00   4.5073676356162764e+00   4.4332929348891792e+00   2.8333596934629252e-02   1.1886862684779103e+00   3.4335970432331924e+00   9.2191338095037856e-01   6.8205913643138345e+00   3.4503945288241340e+00   6.6825998824230659e+00   6.4616559558736029e+00   7.0057823645956399e+00   2.1570170799867049e-04   7.1329552847900377e+00   6.7985170202067371e+00   6.6501271061387115e+00   2.8048198056003772e+00   1.8074843741926994e+00   1.7765078181431302e+00   5.3522409604236341e+00   4.8693811881775311e+00   7.1467460912844238e+00   7.1265800913016708e+00   2.8429095105092581e+00   7.1390406682931369e+00   7.0742482797524637e+00   1.4707664075739479e+00   6.5640085723207369e+00   5.5664244332341379e+00   5.5517204601173820e+00   6.4958880630147915e+00   6.6400320102211339e+00   6.5328385944673162e+00   2.1790343114794353e+00   2.2298321039666180e+00   5.9216078756769353e-01   6.1686686347728976e+00   5.9291532867397869e+00   5.4933804515711397e+00   7.4540248450161837e+00   5.8715550394546057e+00   7.5371125269588060e+00   2.1753248735918956e-01   1.6934119011091484e+00   6.8950775285883541e+00   6.9847540894700888e+00   1.6193015903088588e+00   6.4443145341094388e+00   7.1889639449949483e+00   1.6361771454687293e+00   4.7112936635714826e-03   6.1171822643086324e+00   5.5383308787447837e-03   5.9297969253082465e+00   6.0128730273225139e+00   5.7625147014079543e+00   5.3770564806166830e+00   1.7937546281889583e-01   4.9336124967000672e-01   1.6202699190352525e+00   7.2802460166329368e+00   5.1274584737405711e+00   5.1669346231653934e+00   2.9666941498947610e+00   6.0358767704915073e-01   3.7084630976735191e+00   3.7642366775751284e+00   6.9219717551107545e+00   7.0686345149947929e+00   6.6867920370489724e+00   6.6094201770449228e+00   3.2349503616879205e+00   2.8969865186898871e+00   7.5558958210638698e+00   7.4888097250340806e+00   4.9188641253192040e+00   5.1369312555739910e+00   3.8061357460565937e+00   1.4089762573003191e+00   4.5385490642712245e+00   4.5120359973277449e+00   6.2967015759236800e+00   6.3443869829205291e+00   6.3717058353874521e+00   6.4431405986819010e+00   1.8579251497947349e+00   6.4803586919081173e+00   3.0060951160231539e+00   3.8095897250107869e+00   3.8032160630008218e+00   3.9205347826022199e+00   5.0188176601996322e+00   1.5320922257902709e+00   2.0612053109937345e-01   2.6993721271223543e+00   2.9149346354918126e+00   5.8549638077020685e+00   1.8058196155431658e+00   6.6954669104939653e+00   6.6098639753240116e+00   5.5101328677928514e+00   1.0748082558064662e+00   1.1416364166935105e+00   1.4467293519424942e+00   2.3199307357740451e-02   3.1485000652711985e+00   3.4968048288776492e+00   3.5673225948434508e+00   2.7470043679746117e+00   2.6421451902311293e+00   0.0000000000000000e+00   0.0000000000000000e+00   1.3630717363176577e+00   1.3726414087134171e+00   2.4908310071104056e+00   6.8358133880536824e+00   3.1549660226952669e+00   1.9416049963578614e+00   1.1536595250315980e+00   7.7214358940862748e+00   7.4591645692328665e+00   1.5006910262063860e-02   2.5053093377374092e-02   2.8975073124675941e+00   6.9459858613447283e+00   6.9834171325847993e+00   7.2321035266544307e+00   6.9275969428206141e-01   6.3773427461410357e+00   3.1112455502199770e+00   3.7383341769426282e+00   3.7200764202945424e+00   3.6206871754296914e+00   2.2111357892960797e+00   3.5222668933004804e+00   2.1279133322782795e+00   3.1067321024236536e+00   2.4798567014109629e+00   6.3768053387652639e+00   5.6500907341605422e-01   1.5338288644251259e+00   7.2150946020695423e+00   3.113439707968