<?xml version="1.0"?>
<VTKFile type="UnstructuredGrid"  version="0.1"  >
<UnstructuredGrid>
<Piece  NumberOfPoints="4041" NumberOfCells="7528">
<Points>
<DataArray  type="Float64"  NumberOfComponents="3"  format="ascii">56818.26305072499 -2506106.549119427 0  42243.18265024776 -2506857.639328673 0  29021.82503270428 -2504261.924403077 0  16550.12421826219 -2499855.084024415 0  4655.032296222308 -2495697.422200306 0  -7261.504300492456 -2494323.621393709 0  -18625.22209185599 -2493319.244519799 0  -29276.70419068305 -2491316.102597814 0  -39371.58555411869 -2489334.610554085 0  -48872.2887625367 -2487148.664179707 0  -56975.1983834749 -2482507.606906727 0  -64856.00389190487 -2478322.793323702 0  -73044.09528138349 -2475914.932075506 0  -80956.89453806292 -2474104.027428716 0  -88297.01099239565 -2471721.028140273 0  -95122.34251075231 -2468979.68610345 0  -102033.0976717825 -2467743.453790383 0  -108667.8585333195 -2467170.433637599 0  -114915.9932325953 -2465984.168528114 0  -120845.1804641294 -2464950.543945178 0  -126578.8706923529 -2464806.636550912 0  -131905.6385080613 -2465871.725308503 0  -137064.687279085 -2466513.84235653 0  -141931.6894689468 -2467114.408289441 0  -146558.2518132151 -2467929.3528441 0  -150981.1782706213 -2468467.119438711 0  -155134.7485423184 -2469150.351715567 0  -159045.2990449393 -2470116.702174883 0  -162783.5633652424 -2470995.874606837 0  -166363.671458142 -2471566.36883454 0  -169791.2094945778 -2472089.92531744 0  -173066.7170363216 -2472372.644023074 0  -176180.8272511644 -2472318.589143077 0  -179127.4549433015 -2471957.228690146 0  -181904.9538427488 -2471408.024018189 0  -184523.0000848745 -2470783.818157519 0  -187005.1824092157 -2470191.610932166 0  -189371.4710935979 -2469697.441393066 0  -191637.2486669229 -2469286.956885205 0  -193813.7840475813 -2468932.72635197 0  -195894.9751436561 -2468622.32397195 0  -197860.5122662469 -2468356.257574914 0  -199699.8496405249 -2468131.239090017 0  -201484.3799547247 -2467852.578310028 0  -203235.1081836333 -2467477.120196301 0  -204148.4039899458 -2468231.328417643 0  -204779.4006070163 -2469477.772737175 0  -206226.3182912302 -2469895.043213626 0  -207209.0484690831 -2471050.353437294 0  -206633.7342709575 -2472198.562901576 0  -206689.2205673746 -2473699.963528 0  -207439.3355646643 -2474578.344737141 0  -208686.077261504 -2475226.075148567 0  -208911.224951669 -2476610.681926033 0  -209786.4032029276 -2477610.304923216 0  -210530.8593792382 -2478701.972600761 0  -211347.3117581898 -2479598.487775704 0  -212436.1994711102 -2480321.158208149 0  -211661.3579813032 -2481227.303558039 0  -212339.4592376566 -2482164.498648201 0  -213368.6786835724 -2482893.361192783 0  -213823.9242874084 -2483849.45466838 0  -213959.3389029546 -2484975.339969706 0  -214654.5105929325 -2485857.893728198 0  -214924.9636302208 -2486897.99052352 0  -215387.1968803907 -2487861.977722809 0  -215850.8935184235 -2488606.845677634 0  -216850.3002300822 -2488718.42607849 0  -217786.1788875306 -2488773.814743428 0  -218655.6596527224 -2488960.510713411 0  -219459.2999881662 -2489050.843080118 0  -220215.8572609511 -2489415.86959818 0  -220949.8949656503 -2489578.990779826 0  -221671.8184129359 -2489638.232601265 0  -222360.8395383537 -2489613.467831609 0  -222996.7344008797 -2489634.843068176 0  -223565.7511683207 -2489892.292788903 0  -224056.7930683517 -2490349.213746534 0  -224487.3350267241 -2490843.9928667 0  -224917.776609416 -2491084.259717198 0  -225385.9512610532 -2490939.6600004 0  -225871.0057115029 -2490692.412192973 0  -226347.6588061106 -2490593.974681439 0  -226807.4764604085 -2490599.669749292 0  -227247.6549526961 -2490611.50259405 0  -227666.4916287626 -2490611.945233863 0  -228063.1258911103 -2490614.649470013 0  -228437.2792766626 -2490619.621715965 0  -228789.0148414041 -2490611.440145575 0  -229118.6979285175 -2490579.661792117 0  -229427.7721220893 -2490551.675512337 0  -229718.2857126026 -2490575.632414152 0  -229992.0195062686 -2490686.778079117 0  -230250.5004979436 -2490869.571547285 0  -230495.0197162354 -2491060.637110347 0  -230726.6693575185 -2491208.220350035 0  -230946.3810285181 -2491273.695406383 0  -231155.1727872346 -2491240.482369016 0  -231354.5763814056 -2491151.916669652 0  -231546.3204437924 -2491058.490694704 0  -231732.1881906295 -2491000.058362073 0  -231914.0081666783 -2491009.477644776 0  -232092.2357485933 -2491100.02032591 0  -232263.9691545902 -2491246.068674924 0  -232425.9547039263 -2491419.407037552 0  -232574.5133449228 -2491597.360932464 0  -232704.8009038861 -2491776.874946281 0  -232810.4395700074 -2491960.360275827 0  -232883.2341085825 -2492150.113137818 0  -232912.9947800571 -2492348.349496039 0  -232888.518304726 -2492556.97189473 0  -232809.3398841225 -2492774.886297886 0  -232684.053466982 -2492998.772055723 0  -232523.4050637269 -2493224.618723386 0  -232341.870709994 -2493446.437774289 0  -232149.8049278373 -2493655.556957558 0  -231926.4623607639 -2493840.270994475 0  -231648.985213168 -2493990.591921999 0  -231333.5089516883 -2494114.232577013 0  -231011.2867655237 -2494226.909041754 0  -230716.5565724511 -2494352.83929517 0  -230448.2156366009 -2494566.308324145 0  -230174.691868224 -2494859.203920859 0  -229854.386277046 -2495099.245907737 0  -229456.0482055206 -2495181.232778375 0  -228998.936468587 -2495162.974046715 0  -228517.5500007842 -2495146.384058104 0  -228039.7566338337 -2495203.170887594 0  -227590.3999753736 -2495397.522350929 0  -227184.981929657 -2495766.19833274 0  -226750.2922870113 -2496024.476637892 0  -226213.5702095754 -2495994.660255382 0  -225600.3011662167 -2496052.877603892 0  -224958.9944484101 -2496261.85032066 0  -224327.7512929673 -2496330.814093316 0  -223631.5812784273 -2496280.649748585 0  -222879.2998883054 -2496301.667794817 0  -222254.9783848506 -2496634.523083093 0  -221626.1319051044 -2497065.090720322 0  -220761.0581340182 -2497211.459477382 0  -219968.5459241767 -2497393.939598728 0  -220203.5455070361 -2497899.480461085 0  -220855.9220298611 -2498603.237242675 0  -221131.2246077028 -2499252.862384938 0  -221774.7122121719 -2499660.862433717 0  -222479.7107982228 -2499760.827055608 0  -223033.1183148655 -2499984.859791101 0  -223490.2596104009 -2500462.200395656 0  -224062.3926326139 -2500600.027660071 0  -224541.1956214423 -2500228.786139573 0  -224949.7350095029 -2499888.083019758 0  -225341.0500730075 -2500225.130315016 0  -225757.1423292761 -2500548.432558256 0  -226180.3939651776 -2500786.080344201 0  -226538.177938963 -2501153.984901021 0  -226773.495284157 -2501569.98568693 0  -227039.0304909855 -2501911.932245616 0  -227468.9595916819 -2502129.814972885 0  -227798.6047508129 -2502389.299855465 0  -227884.9238541838 -2502832.388358992 0  -228126.2989976085 -2503276.196050428 0  -227861.5342855403 -2503623.445554566 0  -227372.9304734626 -2503907.390885711 0  -226957.5853764467 -2504175.647480549 0  -226606.2579015691 -2504483.304832757 0  -226161.0056828749 -2504866.856449728 0  -225815.0711509458 -2505316.314749662 0  -225762.8994468044 -2505806.079859471 0  -225997.7594286802 -2506242.915512673 0  -226398.1360973342 -2506619.148825204 0  -226765.9297719086 -2507036.084494513 0  -226845.4953021393 -2507500.960872594 0  -226465.0153921999 -2507962.631785552 0  -225845.8228635425 -2508243.541008709 0  -225251.6156104354 -2508190.021993677 0  -224690.1793840567 -2507897.641923884 0  -224100.3548492745 -2507553.624348171 0  -223414.5727227449 -2507371.21363621 0  -222654.4265297953 -2507276.075847208 0  -221912.0382560525 -2507297.337862614 0  -221266.9189332082 -2507785.266418245 0  -220681.0921292723 -2508353.609471263 0  -220062.6686429494 -2509000.329523423 0  -219236.8308144344 -2509174.655190252 0  -218255.6568359406 -2509399.603364403 0  -218572.4131759723 -2510066.725015923 0  -218861.5230561548 -2510964.91864626 0  -218883.3556157417 -2511846.204517832 0  -219353.8346553762 -2512525.731451487 0  -219963.2685976659 -2513082.42119797 0  -220488.7752431028 -2513679.96717993 0  -220885.2380172826 -2514382.263808274 0  -220990.1132767769 -2515108.665935786 0  -221485.0382534687 -2515632.998891791 0  -222155.0186764667 -2516036.139659067 0  -222390.5819874348 -2516597.550678985 0  -221683.5075769027 -2517109.541916781 0  -221049.1691573458 -2517587.936233334 0  -220341.3916149238 -2518020.204995572 0  -219495.2331410376 -2518369.688367899 0  -219546.7035698217 -2519131.218151119 0  -219685.2088385221 -2520038.091014113 0  -219723.4857113709 -2520890.499102236 0  -219511.8253665795 -2521706.050384868 0  -218768.9497051224 -2522318.273173176 0  -218062.3835558011 -2522951.471679174 0  -217792.1932780886 -2523832.754628343 0  -217721.1829300973 -2524802.156087346 0  -217105.5823664274 -2525632.89503949 0  -216114.3489158486 -2526130.198485046 0  -215762.8823642595 -2526977.667966621 0  -215624.0210213385 -2528047.606007989 0  -215626.57696477 -2529136.754249504 0  -215068.1955778405 -2530004.876344503 0  -214353.5819060722 -2530902.512838067 0  -213458.5631825881 -2531647.245829566 0  -212582.3066935458 -2532532.655828057 0  -211601.1993616105 -2533281.698502241 0  -210230.8203599756 -2533492.702960313 0  -209359.9819486135 -2532733.353591639 0  -207963.7301089823 -2532402.039407601 0  -207461.9620998055 -2533726.636299287 0  -206743.678788939 -2535012.373417936 0  -207794.6479248811 -2535697.474151645 0  -208706.2824926935 -2536681.47128792 0  -208662.8240783605 -2538140.018106792 0  -209359.9957095342 -2539157.350742796 0  -209716.6789857079 -2540401.743356431 0  -208811.4519281083 -2541468.645140812 0  -209077.7529802741 -2542648.334750617 0  -210420.4603172865 -2542562.067677911 0  -211621.9917404423 -2542541.993928391 0  -212754.33587808 -2543120.703356035 0  -212519.6312691136 -2544241.062718421 0  -213084.8685374894 -2545195.129669076 0  -214049.5779914909 -2545637.606566725 0  -215070.0904746166 -2545977.323497721 0  -215634.1102203288 -2546825.493334641 0  -215621.16885731 -2547930.190942091 0  -214942.2606588054 -2548830.648553029 0  -
[...]
<CellData  Scalars="f_453"> 
<DataArray  type="Float64"  Name="f_453"  format="ascii">6.1789618816653102e-01   2.6825615456403255e-04   1.5256775865603853e+00   1.5434066734997547e+00   3.3301402612696407e-01   3.5753623372139165e-01   2.0730422225062566e+00   2.2836914551811645e+00   2.0544678581346130e+00   2.2308645177205846e+00   2.6156407310855041e+00   5.2877099749368051e-01   4.3807712807753507e+00   4.4040217988960411e+00   4.1455635788610969e+00   2.7364169908259171e+00   3.8080091274824066e+00   3.7702060520734477e+00   2.7977608717533089e+00   3.7506785446303463e+00   3.7861641926297174e+00   2.1468660092675265e+00   1.0130787578947360e+00   2.4024263720814933e+00   2.6088224629701764e+00   2.6454457434446481e+00   2.4525056229347997e+00   2.4530952633064005e+00   1.9439837599473004e-03   1.5689176698954453e-03   1.4394310032606741e+00   1.9259333694910281e+00   3.1082234826068538e+00   3.0851361919377052e+00   3.0217455255480550e+00   2.3775593891066369e+00   3.6532605770683251e+00   5.8942314459022138e-01   3.5284587658660671e+00   2.2713437794431828e+00   1.4778280707882532e+00   2.4099742141653864e+00   6.5973099421264891e-01   1.4587182308532216e+00   3.4791139461896448e+00   2.3628980066287997e+00   2.4302466657400474e+00   1.1268367437601396e+00   3.0932530712483546e+00   2.5683133093602026e+00   2.2843689610504985e+00   2.1782572132642479e+00   2.1137016680077085e+00   4.2910214736931823e-01   2.2876861831033337e+00   2.2276996424371944e+00   4.7215261890412874e-01   3.6817725283599194e+00   3.6340836339364784e+00   3.0146216416526861e+00   2.8204629392859699e+00   2.3471327472963655e+00   2.6665565517853391e+00   6.0116376831844143e-01   3.3258169295648439e+00   2.3948880245697086e-02   2.2978824612417605e-02   3.3179572981553496e+00   1.5015979417065346e+00   1.0602673782622807e+00   1.1356012969511831e+00   7.5968754565523566e-01   4.7193417103341380e-03   2.6895113418709689e+00   1.7877875358178175e+00   1.3345624278903299e+00   1.1497278006213603e+00   4.7213682482762664e-01   6.2773497751973772e-02   2.4323632382129734e+00   4.9100804704413248e-01   1.3306374733724744e+00   1.4899909175854458e+00   3.4215764286075050e+00   3.3605680875756319e+00   4.2331748586502931e+00   1.5440071217167592e+00   2.6395881355024520e-01   3.1242453188908867e+00   2.1421676413358699e+00   7.9579403937299009e-01   7.6095023461035149e-01   2.8032428239674996e+00   1.3784533724755113e+00   2.3881350394590299e+00   2.9149019149171487e+00   2.0088425466644173e+00   2.9408337928638524e+00   4.0588836476579909e-01   2.1668122309334215e+00   3.5156646958107030e+00   3.1710512123845294e+00   3.2836622649028420e+00   3.4110333589567854e+00   1.8553688345455355e+00   1.9620278794047807e+00   3.1172434285688460e+00   3.0139044571748190e+00   2.9913808264589137e+00   3.4691156998730124e+00   3.8492738314391799e+00   1.5959170092171053e+00   1.6045778882141026e+00   3.5472958061422695e+00   3.7714557999795356e-01   3.5585592720871833e+00   2.7835830941302468e+00   2.7515092966692443e+00   2.4063957275720380e+00   2.4967926949611527e+00   3.3299305649573223e+00   3.6434997065849606e+00   3.6134006296950947e+00   3.1462504093615187e+00   2.5483158190501163e+00   2.7756634196025183e+00   2.6095230358803603e+00   4.3865918795780736e+00   4.2858040653245295e+00   4.2627552507888469e+00   3.0758378181479418e+00   3.0764433155559394e+00   1.4204685152539218e+00   2.9673067903446535e+00   4.0036207764064136e+00   2.6370228155918909e+00   4.0604384687841675e+00   3.2988672864302409e+00   3.1924124945389165e+00   2.1053562609257403e-02   1.8800561160310458e+00   1.8456354013161826e+00   2.3826470914681024e+00   2.8692719634983419e+00   2.7763386636159293e-02   3.7398167552370678e+00   3.7618245925564473e+00   7.9205975222885294e-01   2.7216624039213779e+00   3.3355561814541712e+00   1.2923830188443370e+00   2.6358076836818845e-01   1.8149449304750227e+00   1.6722975584891864e+00   1.2778478834338900e+00   1.3367646581428576e+00   1.5286299167939119e+00   2.3964766217078384e+00   2.4706435392479482e-02   2.6564855462981644e-02   3.1854745172562611e+00   2.7886632800401538e+00   3.1410322093387948e+00   3.6090474652829423e+00   2.6801292199152216e+00   3.7878797380144906e+00   3.8159920337692528e+00   2.3223895941671042e+00   2.4868744752580336e+00   1.1013380721688115e+00   1.5937148756239081e-01   2.9605752828470444e+00   3.1000778497865631e+00   1.5880843035903325e-01   5.7992911872298381e-02   3.3595051752367898e-02   1.9703953120259465e-01   2.6793119999163606e+00   3.2096547080253566e+00   1.6840731416261345e+00   3.1026157147929387e+00   1.7665366155813087e+00   7.4982245501254918e-01   1.7829672372853436e+00   1.6348668907071247e+00   1.7259238039297309e+00   3.6981725919027557e+00   1.1231820974959027e-01   3.1874444399348207e+00   1.1616226540571567e-01   3.3741986111422246e+00   3.6380585311751856e+00   3.2958440969639309e+00   3.1650362635453679e+00   3.0042771241336848e+00   3.1326533828983072e+00   2.8058707271308467e+00   4.5069451200401706e-01   2.9453640475001390e+00   1.4185779119471078e+00   1.5398877883463387e+00   1.2424137507487492e+00   4.0366308090575770e-01   1.6031279594449312e+00   1.5112646084930119e+00   1.5016229278272664e+00   1.4827817140379960e+00   4.3344598766198112e+00   2.5657317352849702e+00   2.3973691228207708e-01   2.1665067520040839e+00   2.8082173018930447e+00   3.6076833678264468e+00   3.6193820966159138e+00   2.0133386433402971e+00   2.9130727557590861e+00   2.9096023773521238e+00   2.7024478804740690e+00   4.9249616104911892e-01   5.6749279124140684e-01   2.9730133032805162e+00   5.4316302767237268e-01   4.3788815450372491e-02   5.9034223326717379e-02   2.8281004091190984e-02   2.7066939471230871e+00   2.8756634958915188e+00   4.7057430872912698e-01   3.2962621273871751e+00   3.2498869042742173e+00   1.7952046936874040e+00   2.9303730088443851e+00   1.6455386804684800e+00   3.2275373466675359e+00   3.6067175652825054e+00   3.6577096810117800e+00   2.9504186362865381e+00   3.0122486230462964e-01   2.9127994725296469e-01   3.0973426679092411e+00   3.0853539177393929e+00   3.9899157453416265e+00   3.9345227583707079e+00   3.2240253831029628e+00   3.6430826633679407e+00   3.1499074214507474e+00   3.0409519763194082e+00   3.2129454691030905e+00   3.1694300617550910e+00   3.0633705706483552e+00   3.1253848534179456e+00   3.0003947682208612e+00   4.1899687926874218e-01   4.1154142518312620e-01   1.8610133136927578e+00   2.9936617404637094e+00   1.7926553672942913e+00   2.5648560880878062e+00   2.6189452200080101e+00   3.3291236776607698e+00   2.8122193409519176e+00   2.0131272893807584e+00   2.8676301590513722e+00   2.0744101127315151e+00   2.5863226369371421e+00   3.3766588926955321e-01   4.8120291862107323e-01   1.8038040344007276e+00   9.3457951013826568e-01   1.5921238646052573e+00   1.7557332735537010e+00   8.9831446035175500e-01   5.9593596677452705e-03   1.3688345796744243e+00   5.0575335893742712e-01   6.6681090214675853e-01   9.9705760163669321e-01   1.0630655387388717e+00   3.6643820579218964e+00   2.0575677244325123e+00   4.2485370152221569e-01   3.0718589834132661e+00   4.1191049754485476e-01   2.6067939605741279e+00   3.4619863030332461e+00   2.2630803463862397e+00   6.1903532405438355e-01   2.3292917967707414e+00   3.4690139399196958e+00   3.2663820017939180e+00   3.3297844265632603e+00   2.7492939346073415e+00   2.8867821463443888e+00   3.8511161669315941e+00   3.8016677264368064e+00   3.7853722261488949e+00   2.7993229172358385e+00   3.6781336469342687e+00   1.4091036432224107e+00   3.1280229653416889e+00   1.1496101543797983e+00   1.8304640671771906e+00   1.7470069556595345e+00   1.2762912386765701e+00   2.0121569868839413e+00   1.2385080113735287e+00   1.1980988578120666e+00   2.9687106397679139e+00   8.5437919113244970e-03   1.1823845424451305e-02   1.6793952350912007e+00   2.4441536666380328e+00   3.4578031427053615e+00   2.0844954067807921e+00   3.1644544552656826e+00   4.1531654309212076e+00   3.4742085273320633e+00   3.3549337943216866e+00   3.6976746298297769e+00   3.7751634497051825e+00   2.4510383772133291e+00   3.4015542203557749e+00   4.1768749265358727e+00   9.0302593733662262e-01   3.8699760367282021e+00   3.8665514235699274e+00   3.9112385735755368e+00   3.9446648768459651e+00   8.4618652380309078e-01   1.9334904222737910e+00   3.4472333714777328e+00   3.1967933767217431e+00   3.0369919311653741e+00   3.2534257378549780e+00   2.8511596011549099e+00   2.8947506704370656e+00   9.4647773909890542e-01   8.0356541002736270e-01   2.3846281215195568e+00   2.2027182862908470e+00   5.4326544831854484e-01   5.6060534703518994e-01   1.3325179048011961e+00   1.3492354224573015e+00   2.2478871363052115e+00   3.9328018285549677e+00   1.0167717997848602e+00   8.1471725295024178e-01   8.2443099151736177e-01   2.6881927673160302e+00   2.8383013795906566e+00   4.1027035949782871e+00   3.0819118067711679e+00   3.7246455572337833e+00   3.8032616554527148e+00   3.5261022553168395e+00   3.4014149072866777e+00   1.0806709989043137e+00   4.4145797055385033e-01   4.2807540615144122e+00   2.6981712826084969e+00   1.3842903015360541e+00   3.0384520591410555e+00   2.9910986962229069e+00   1.4485709953772476e+00   2.2306120399280740e+00   8.2411219271445213e-01   8.2326789937894396e-01   1.0957712821227021e+00   1.1220322756629488e+00   3.3286951717041391e+00   4.1169840340772612e-01   2.5326830669830840e+00   1.5489133878734938e+00   2.6503017199976382e+00   2.3186337695378363e+00   2.1616340570486949e+00   4.5721865054587923e-01   2.2201922821459426e+00   9.5143959078916773e-01   9.0852606897427113e-01   2.7198816330080642e+00   2.3504969709372956e+00   3.0210659781433766e+00   2.2637338667743026e-01   2.0587435053978945e-01   2.7996021342285116e+00   6.9971715823910319e-02   3.9270059262672317e+00   9.8985299284398987e-01   2.9235048047581769e+00   2.9372053840465373e+00   2.9635611519579359e+00   3.6164405387465388e+00   3.6453160787690084e+00   3.5604239808464477e+00   3.5314741557271625e+00   2.9820783140340597e+00   1.9620989406361837e+00   3.0259374528025691e+00   3.6223206735388196e+00   3.6241348576881260e+00   3.3000436552477241e-01   3.6852160015535140e-01   3.3079596457869167e+00   3.2829138120581116e+00   4.2527885487792272e+00   3.4843673606860781e+00   2.9635561867752447e+00   2.5597697035923948e+00   2.4219155237828986e+00   3.0407397479211689e+00   1.8535990887263836e+00   1.8086272833459311e+00   2.4946087973852382e+00   2.5546761855453548e+00   2.3099651286702749e+00   2.2136297724308309e+00   3.9271065986494200e+00   3.8994953810234168e+00   1.0654912594604853e+00   3.0331298631153860e+00   1.5906713797402017e+00   3.5759890172709410e+00   3.6153541738567285e+00   5.0331081324547278e-01   9.8906482797655726e-01   1.4578415578416555e+00   1.4134769664913929e+00   1.0177724770343901e+00   4.1195566346871040e+00   2.9340141747122459e+00   3.0316449066192703e+00   3.0698533056641581e+00   2.5312923723821292e+00   3.2430371567533554e+00   2.5886737389871204e+00   4.6162618969345520e-01   3.2662578355534495e+00   1.8769494612180824e+00   3.3410098171499714e+00   3.4841207337046445e+00   5.2463059478898311e-01   1.9324270574729990e-01   1.7250483979196751e-01   2.2861788940865893e+00   4.9849026780343458e-01   3.6602418791788733e+00   1.8484809267295303e+00   1.3654418691441643e+00   1.7928813277272684e+00   2.0089798873006619e+00   2.0896994141593153e+00   3.4517738761600469e+00   3.7504754380350542e+00   3.5985248782954011e+00   3.8021989155956879e+00   3.4427930661546329e+00   2.7456474160714075e+00   3.4210502689865546e-01   4.0989033695569930e+00   8.8375511373538596e-01   6.3240002750473567e-01   1.4659458235922704e+00   1.3042632179911662e+00   1.5452342590176528e-02   3.0763067906706709e+00   2.1614117643889479e+00   2.3813836301025786e+00   1.0976348244806968e+00   2.7988004530802773e+00   1.4281227774563414e+00   2.6281755766420800e+00   2.1685445312891356e+00   3.1323668515514635e-01   3.3061470630892609e-01   1.2021812844993408e-02   9.1744537755476026e-03   2.7057175011327956e+00   3.8248776909138704e+00   2.2710646764522422e+00   2.1648445952541766e+00   3.8046248720981914e+00   3.7823455573587719e+00   3.8919917414789538e+00   2.0796553434516025e+00   3.5625762723307832e+00   3.6275296445921836e+00   2.4321201811028850e+00   2.3682046228191140e+00   3.3166142176269733e+00   3.0723879324742711e+00   3.1572168224111379e+00   3.8535508825824545e+00   3.2980751495330725e+00   1.8342409933826201e-01   2.0965353026418998e-01   1.2856167504697374e-01   3.2495802881720919e+00   4.0872673002839539e+00   2.7401765920767054e+00   1.3480681076876164e-01   3.9702715901449359e-01   4.1183729911546880e+00   3.8087208352944740e-01   1.2954440030829231e+00   1.2411025028847054e+00   3.3657340822151109e+00   3.3982944364986341e+00   2.8678626784328709e+00   2.8112065137863236e+00   4.2474529570890942e+00   3.0301642473449193e+00   4.1753670558177953e+00   3.3946851072349751e+00   3.4257613492381789e+00   3.5925716955364915e+00   3.8848299828029076e-01   4.1738776335096057e+00   1.7508338432454194e+00   1.5779925207538417e+00   1.7369195198390615e+00   2.0440978208041027e+00   2.9185389471157168e+00   1.6972148537786129e+00   3.3755040525485067e+00   2.8586822587151874e+00   2.9385880482383193e+00   1.5422420249715598e+00   9.7699984131560336e-02   1.5351009448122828e+00   1.2284560655959750e-01   3.8940453321668058e+00   2.2298216303246554e+00   2.2976235653221604e+00   3.5233208153715254e+00   9.7910718542544273e-01   4.3999778524987360e-01   3.6171322674621464e+00   3.6795390225240951e+00   3.8307537043250219e+00   2.4911702144016536e+00   2.5206414703480329e+00   2.6904114892539002e+00   3.8888774466387939e+00   3.5450740659214057e+00   2.4819921748054723e+00   4.1100008077288686e-01   2.8410754093236479e+00   3.5396221305330431e+00   2.3962882542185562e+00   3.3938055560159821e+00   2.6616653896326956e+00   2.6379861428395879e+00   1.2766877019238412e+00   4.2298838808699859e+00   7.5097001261138419e-01   3.2600253200342246e+00   3.1951548902285642e+00   3.3622548750186967e+00   3.4265328875853860e+00   4.4147863478249159e+00   4.3878909087894638e+00   4.3226372112303135e-01   1.3223559655669992e+00   2.1354828840949400e+00   1.2314319217584937e+00   2.0787903283585836e+00   1.3819820415554479e-01   1.3915670130879393e-01   3.5332575816339267e+00   3.4621728461716299e+00   4.3940883198868491e-01   2.4823484436474139e+00   2.3876197622686366e+00   3.1825846432020100e-01   2.4013374479494511e+00   3.6938562105913741e-01   2.6682654045808558e+00   1.2785035612818461e+00   2.6813346468847268e+00   1.3806804356616835e+00   2.1169231211748629e+00   2.0567680797939865e+00   3.8730601295927634e+00   2.6466322144951016e+00   1.4715840675521523e+00   3.9547655136412807e+00   2.2872001672659721e+00   2.2093593990560043e+00   6.4342477530160047e-01   1.7018755710636952e+00   1.9874650763257801e-01   1.7696534108936706e+00   1.9521668410897733e-01   2.8725582046505678e+00   2.9548596473982540e+00   3.2583301301032517e+00   2.6141673329030581e+00   3.2741020542621642e+00   7.2809828135894583e-01   1.0454415579230578e+00   7.3302792717352960e-01   4.1511186826614388e+00   7.4993783900852451e-01   9.2189929487435496e-01   9.5425643268221760e-01   9.7995603776947660e-01   9.5568665058234159e-01   3.5965484989995975e+00   3.6424089668901551e+00   3.5129501663109841e+00   3.4798449909299993e+00   9.7071957833234579e-01   1.3939274881991852e+00   3.7271002685201466e+00   1.2212477908664434e+00   2.4458033629606755e+00   2.4518328905080704e+00   3.8307937115924444e+00   2.2827601983998749e+00   2.2706160558256316e+00   3.9390662690132594e-01   2.0830396274605727e+00   2.0692073880715807e+00   2.6696175454711351e+00   1.7504982546107679e+00   3.8133152635230001e+00   2.3742094692195708e+00   2.3356116117099393e+00   2.7850061107632245e+00   3.0023107194162879e+00   1.6207996631510455e+00   3.0200053109831884e+00   1.1775804514870216e+00   1.6951516936494317e+00   3.0041579265453997e+00   2.9149114300813981e+00   2.6805074752634486e+00   9.4975611111867841e-01   1.8210830538879412e+00   1.8860564597550142e+00   2.9914354175494751e+00   3.3864086654144692e+00   1.2316814472173157e+00   4.1771634068314798e+00   2.1626012534989467e+00   3.5810227201177969e+00   4.1808719391599443e+00   4.9619206108027947e-01   4.9523040976571603e-01   5.0169174031865216e-01   5.0497831974057128e-01   1.3078616200392161e-02   1.2748556191926999e+00   2.3378981518683162e+00   2.2988760873196012e+00   2.2200072684446157e-02   4.3497617099901087e-01   1.8028224156250727e+00   4.1681661902859896e-01   3.5082631125640171e+00   1.8167330566900923e+00   3.3785562660459778e+00   3.2586399819108953e+00   3.5375278066587601e+00   1.1752091050102147e-02   3.5850664303833257e+00   3.4890373910749144e+00   3.4121091907516545e+00   1.3830075241451634e+00   8.0496150796902965e-01   7.8795159368475343e-01   2.8845306985946690e+00   2.5565850361556990e+00   3.6538252400099966e+00   3.6497806340011598e+00   1.3872291272069113e+00   3.7990224810660789e+00   3.7768950300485593e+00   6.2734503057233293e-01   3.3106665613516633e+00   2.9998987408984337e+00   2.9979544717670517e+00   3.2833071575983217e+00   3.3894999241655963e+00   3.3340332239369252e+00   1.0252850619193463e+00   1.0552718608360676e+00   2.4902316424257678e-01   3.1884372043615063e+00   3.0686394754445083e+00   2.8231053636299972e+00   4.0528191943115939e+00   3.1667273650300571e+00   4.0873985469190419e+00   1.0151340312638127e-01   1.0201002066937983e+00   3.6685844095313755e+00   3.7092908795430124e+00   6.8553435946150909e-01   3.4046026883563005e+00   3.6561986816108973e+00   6.9684971215205693e-01   1.5479612761144675e-02   3.2399140347570419e+00   1.5459664873951513e-02   3.2245368950171924e+00   3.2697725166265008e+00   3.1615882795222245e+00   2.9678027531348254e+00   8.2666494157192544e-02   2.1805124667460704e-01   7.4163416253891989e-01   3.8072325469139483e+00   2.8809396798314801e+00   2.8954980686425551e+00   1.5040934241566835e+00   2.6410817272255793e-01   2.1399164396652246e+00   2.1704619503644351e+00   3.6941238595211074e+00   3.7657085047462866e+00   3.5798473200519383e+00   3.5438249765590952e+00   1.6427150192721007e+00   1.4586675802628040e+00   4.0823082989839552e+00   4.0439482634219086e+00   2.6275340996429764e+00   2.7269033420221205e+00   2.0660442100543994e+00   5.8095785305319270e-01   2.5911845282830717e+00   2.5705096299228929e+00   3.3979640373693014e+00   3.4224434282161136e+00   3.4382416442592119e+00   3.4825111024787332e+00   8.8007221300179772e-01   3.4954051220447582e+00   1.5196158206709205e+00   2.2332999600142047e+00   2.0711554140347448e+00   2.2746168568879948e+00   2.6592092058073140e+00   9.3880741472562901e-01   9.3340373985335887e-02   1.3380418669021568e+00   1.4705274598188389e+00   2.9791163079506253e+00   8.6080626000993976e-01   3.6340987757295333e+00   3.5949247431676561e+00   2.9291490059398568e+00   4.5964886120365905e-01   4.0962487467005321e-01   5.8439444042481792e-01   2.1205757748037547e-02   1.5930059138250736e+00   1.9724796509826004e+00   2.0184183655486168e+00   1.5530943328469740e+00   1.5011296504610421e+00   6.2147161164946140e-04   6.8524046407430301e-04   5.5904191711446427e-01   5.6905631219342312e-01   1.2257007528962556e+00   3.5267727769149184e+00   1.6160647454158372e+00   8.5888680513647075e-01   4.9467985169279188e-01   4.0523334536271687e+00   3.9188927919181915e+00   2.0110720910263249e-02   2.3186723402935913e-02   1.4733188916028035e+00   3.6579646464037454e+00   3.6700223819886277e+00   3.9839100616220184e+00   4.4000652941417751e-01   3.5216980732467817e+00   1.6619165468689669e+00   1.9780858849078760e+00   1.9719674962834224e+00   1.8699990030385230e+00   1.0140933157851764e+00   1.8188366918314551e+00   9.7111310951387619e-01   1.6591234412797242e+00   1.2124307813625730e+00   3.5189017086040559e+00   3.7540616805238053e-01   8.8643793634202739e-01   3.7582401311246656e+00   1.574628772480