<?xml version="1.0"?>
<VTKFile type="UnstructuredGrid"  version="0.1"  >
<UnstructuredGrid>
<Piece  NumberOfPoints="4041" NumberOfCells="7528">
<Points>
<DataArray  type="Float64"  NumberOfComponents="3"  format="ascii">56818.26305072499 -2506106.549119427 0  42243.18265024776 -2506857.639328673 0  29021.82503270428 -2504261.924403077 0  16550.12421826219 -2499855.084024415 0  4655.032296222308 -2495697.422200306 0  -7261.504300492456 -2494323.621393709 0  -18625.22209185599 -2493319.244519799 0  -29276.70419068305 -2491316.102597814 0  -39371.58555411869 -2489334.610554085 0  -48872.2887625367 -2487148.664179707 0  -56975.1983834749 -2482507.606906727 0  -64856.00389190487 -2478322.793323702 0  -73044.09528138349 -2475914.932075506 0  -80956.89453806292 -2474104.027428716 0  -88297.01099239565 -2471721.028140273 0  -95122.34251075231 -2468979.68610345 0  -102033.0976717825 -2467743.453790383 0  -108667.8585333195 -2467170.433637599 0  -114915.9932325953 -2465984.168528114 0  -120845.1804641294 -2464950.543945178 0  -126578.8706923529 -2464806.636550912 0  -131905.6385080613 -2465871.725308503 0  -137064.687279085 -2466513.84235653 0  -141931.6894689468 -2467114.408289441 0  -146558.2518132151 -2467929.3528441 0  -150981.1782706213 -2468467.119438711 0  -155134.7485423184 -2469150.351715567 0  -159045.2990449393 -2470116.702174883 0  -162783.5633652424 -2470995.874606837 0  -166363.671458142 -2471566.36883454 0  -169791.2094945778 -2472089.92531744 0  -173066.7170363216 -2472372.644023074 0  -176180.8272511644 -2472318.589143077 0  -179127.4549433015 -2471957.228690146 0  -181904.9538427488 -2471408.024018189 0  -184523.0000848745 -2470783.818157519 0  -187005.1824092157 -2470191.610932166 0  -189371.4710935979 -2469697.441393066 0  -191637.2486669229 -2469286.956885205 0  -193813.7840475813 -2468932.72635197 0  -195894.9751436561 -2468622.32397195 0  -197860.5122662469 -2468356.257574914 0  -199699.8496405249 -2468131.239090017 0  -201484.3799547247 -2467852.578310028 0  -203235.1081836333 -2467477.120196301 0  -204148.4039899458 -2468231.328417643 0  -204779.4006070163 -2469477.772737175 0  -206226.3182912302 -2469895.043213626 0  -207209.0484690831 -2471050.353437294 0  -206633.7342709575 -2472198.562901576 0  -206689.2205673746 -2473699.963528 0  -207439.3355646643 -2474578.344737141 0  -208686.077261504 -2475226.075148567 0  -208911.224951669 -2476610.681926033 0  -209786.4032029276 -2477610.304923216 0  -210530.8593792382 -2478701.972600761 0  -211347.3117581898 -2479598.487775704 0  -212436.1994711102 -2480321.158208149 0  -211661.3579813032 -2481227.303558039 0  -212339.4592376566 -2482164.498648201 0  -213368.6786835724 -2482893.361192783 0  -213823.9242874084 -2483849.45466838 0  -213959.3389029546 -2484975.339969706 0  -214654.5105929325 -2485857.893728198 0  -214924.9636302208 -2486897.99052352 0  -215387.1968803907 -2487861.977722809 0  -215850.8935184235 -2488606.845677634 0  -216850.3002300822 -2488718.42607849 0  -217786.1788875306 -2488773.814743428 0  -218655.6596527224 -2488960.510713411 0  -219459.2999881662 -2489050.843080118 0  -220215.8572609511 -2489415.86959818 0  -220949.8949656503 -2489578.990779826 0  -221671.8184129359 -2489638.232601265 0  -222360.8395383537 -2489613.467831609 0  -222996.7344008797 -2489634.843068176 0  -223565.7511683207 -2489892.292788903 0  -224056.7930683517 -2490349.213746534 0  -224487.3350267241 -2490843.9928667 0  -224917.776609416 -2491084.259717198 0  -225385.9512610532 -2490939.6600004 0  -225871.0057115029 -2490692.412192973 0  -226347.6588061106 -2490593.974681439 0  -226807.4764604085 -2490599.669749292 0  -227247.6549526961 -2490611.50259405 0  -227666.4916287626 -2490611.945233863 0  -228063.1258911103 -2490614.649470013 0  -228437.2792766626 -2490619.621715965 0  -228789.0148414041 -2490611.440145575 0  -229118.6979285175 -2490579.661792117 0  -229427.7721220893 -2490551.675512337 0  -229718.2857126026 -2490575.632414152 0  -229992.0195062686 -2490686.778079117 0  -230250.5004979436 -2490869.571547285 0  -230495.0197162354 -2491060.637110347 0  -230726.6693575185 -2491208.220350035 0  -230946.3810285181 -2491273.695406383 0  -231155.1727872346 -2491240.482369016 0  -231354.5763814056 -2491151.916669652 0  -231546.3204437924 -2491058.490694704 0  -231732.1881906295 -2491000.058362073 0  -231914.0081666783 -2491009.477644776 0  -232092.2357485933 -2491100.02032591 0  -232263.9691545902 -2491246.068674924 0  -232425.9547039263 -2491419.407037552 0  -232574.5133449228 -2491597.360932464 0  -232704.8009038861 -2491776.874946281 0  -232810.4395700074 -2491960.360275827 0  -232883.2341085825 -2492150.113137818 0  -232912.9947800571 -2492348.349496039 0  -232888.518304726 -2492556.97189473 0  -232809.3398841225 -2492774.886297886 0  -232684.053466982 -2492998.772055723 0  -232523.4050637269 -2493224.618723386 0  -232341.870709994 -2493446.437774289 0  -232149.8049278373 -2493655.556957558 0  -231926.4623607639 -2493840.270994475 0  -231648.985213168 -2493990.591921999 0  -231333.5089516883 -2494114.232577013 0  -231011.2867655237 -2494226.909041754 0  -230716.5565724511 -2494352.83929517 0  -230448.2156366009 -2494566.308324145 0  -230174.691868224 -2494859.203920859 0  -229854.386277046 -2495099.245907737 0  -229456.0482055206 -2495181.232778375 0  -228998.936468587 -2495162.974046715 0  -228517.5500007842 -2495146.384058104 0  -228039.7566338337 -2495203.170887594 0  -227590.3999753736 -2495397.522350929 0  -227184.981929657 -2495766.19833274 0  -226750.2922870113 -2496024.476637892 0  -226213.5702095754 -2495994.660255382 0  -225600.3011662167 -2496052.877603892 0  -224958.9944484101 -2496261.85032066 0  -224327.7512929673 -2496330.814093316 0  -223631.5812784273 -2496280.649748585 0  -222879.2998883054 -2496301.667794817 0  -222254.9783848506 -2496634.523083093 0  -221626.1319051044 -2497065.090720322 0  -220761.0581340182 -2497211.459477382 0  -219968.5459241767 -2497393.939598728 0  -220203.5455070361 -2497899.480461085 0  -220855.9220298611 -2498603.237242675 0  -221131.2246077028 -2499252.862384938 0  -221774.7122121719 -2499660.862433717 0  -222479.7107982228 -2499760.827055608 0  -223033.1183148655 -2499984.859791101 0  -223490.2596104009 -2500462.200395656 0  -224062.3926326139 -2500600.027660071 0  -224541.1956214423 -2500228.786139573 0  -224949.7350095029 -2499888.083019758 0  -225341.0500730075 -2500225.130315016 0  -225757.1423292761 -2500548.432558256 0  -226180.3939651776 -2500786.080344201 0  -226538.177938963 -2501153.984901021 0  -226773.495284157 -2501569.98568693 0  -227039.0304909855 -2501911.932245616 0  -227468.9595916819 -2502129.814972885 0  -227798.6047508129 -2502389.299855465 0  -227884.9238541838 -2502832.388358992 0  -228126.2989976085 -2503276.196050428 0  -227861.5342855403 -2503623.445554566 0  -227372.9304734626 -2503907.390885711 0  -226957.5853764467 -2504175.647480549 0  -226606.2579015691 -2504483.304832757 0  -226161.0056828749 -2504866.856449728 0  -225815.0711509458 -2505316.314749662 0  -225762.8994468044 -2505806.079859471 0  -225997.7594286802 -2506242.915512673 0  -226398.1360973342 -2506619.148825204 0  -226765.9297719086 -2507036.084494513 0  -226845.4953021393 -2507500.960872594 0  -226465.0153921999 -2507962.631785552 0  -225845.8228635425 -2508243.541008709 0  -225251.6156104354 -2508190.021993677 0  -224690.1793840567 -2507897.641923884 0  -224100.3548492745 -2507553.624348171 0  -223414.5727227449 -2507371.21363621 0  -222654.4265297953 -2507276.075847208 0  -221912.0382560525 -2507297.337862614 0  -221266.9189332082 -2507785.266418245 0  -220681.0921292723 -2508353.609471263 0  -220062.6686429494 -2509000.329523423 0  -219236.8308144344 -2509174.655190252 0  -218255.6568359406 -2509399.603364403 0  -218572.4131759723 -2510066.725015923 0  -218861.5230561548 -2510964.91864626 0  -218883.3556157417 -2511846.204517832 0  -219353.8346553762 -2512525.731451487 0  -219963.2685976659 -2513082.42119797 0  -220488.7752431028 -2513679.96717993 0  -220885.2380172826 -2514382.263808274 0  -220990.1132767769 -2515108.665935786 0  -221485.0382534687 -2515632.998891791 0  -222155.0186764667 -2516036.139659067 0  -222390.5819874348 -2516597.550678985 0  -221683.5075769027 -2517109.541916781 0  -221049.1691573458 -2517587.936233334 0  -220341.3916149238 -2518020.204995572 0  -219495.2331410376 -2518369.688367899 0  -219546.7035698217 -2519131.218151119 0  -219685.2088385221 -2520038.091014113 0  -219723.4857113709 -2520890.499102236 0  -219511.8253665795 -2521706.050384868 0  -218768.9497051224 -2522318.273173176 0  -218062.3835558011 -2522951.471679174 0  -217792.1932780886 -2523832.754628343 0  -217721.1829300973 -2524802.156087346 0  -217105.5823664274 -2525632.89503949 0  -216114.3489158486 -2526130.198485046 0  -215762.8823642595 -2526977.667966621 0  -215624.0210213385 -2528047.606007989 0  -215626.57696477 -2529136.754249504 0  -215068.1955778405 -2530004.876344503 0  -214353.5819060722 -2530902.512838067 0  -213458.5631825881 -2531647.245829566 0  -212582.3066935458 -2532532.655828057 0  -211601.1993616105 -2533281.698502241 0  -210230.8203599756 -2533492.702960313 0  -209359.9819486135 -2532733.353591639 0  -207963.7301089823 -2532402.039407601 0  -207461.9620998055 -2533726.636299287 0  -206743.678788939 -2535012.373417936 0  -207794.6479248811 -2535697.474151645 0  -208706.2824926935 -2536681.47128792 0  -208662.8240783605 -2538140.018106792 0  -209359.9957095342 -2539157.350742796 0  -209716.6789857079 -2540401.743356431 0  -208811.4519281083 -2541468.645140812 0  -209077.7529802741 -2542648.334750617 0  -210420.4603172865 -2542562.067677911 0  -211621.9917404423 -2542541.993928391 0  -212754.33587808 -2543120.703356035 0  -212519.6312691136 -2544241.062718421 0  -213084.8685374894 -2545195.129669076 0  -214049.5779914909 -2545637.606566725 0  -215070.0904746166 -2545977.323497721 0  -215634.1102203288 -2546825.493334641 0  -215621.16885731 -2547930.190942091 0  -214942.2606588054 -2548830.648553029 0  -
[...]
<PointData  Scalars="f_449"> 
<DataArray  type="Float64"  Name="f_449"  format="ascii">2.0753075335977952e-04  5.4129533196338214e-04  7.0300413116621751e-03  8.7443577044864339e-03  1.3193593014824801e-02  1.5831116999443576e-02  1.8322320693684759e-02  2.0090007965330590e-02  2.0602390440879005e-02  2.0727270426703508e-02  2.1423011304274101e-02  2.6152616755040187e-02  3.0911085835622371e-02  3.8048972277184359e-02  5.6615040577960407e-02  7.4161714879244889e-02  9.3469300569652136e-02  1.2600775204662459e-01  1.4018379345803839e-01  1.5815202507758785e-01  1.6933551618678294e-01  1.9581243372011392e-01  2.3560060798213803e-01  2.6098913596224516e-01  2.7951660470512824e-01  3.2369507520141561e-01  3.8007819389011815e-01  4.3132386978959147e-01  4.8494441559220580e-01  5.4922544535591933e-01  6.0766629479194645e-01  6.6266941849581795e-01  7.2676128869445378e-01  8.3443617777532064e-01  9.6394652338272291e-01  1.1304461440560978e+00  1.3069415860795797e+00  1.4961703135213409e+00  1.7013748897352898e+00  1.9209515394891579e+00  2.1775777500737772e+00  2.4694644409400328e+00  2.6898262525260526e+00  2.6149968920931510e+00  2.5205665067946890e+00  2.4276515777510319e+00  2.2735928056745465e+00  1.7836624422080933e+00  1.5342570152735364e+00  1.9241990641061095e+00  2.0923127623598892e+00  1.9304659213271118e+00  1.6772489018405854e+00  2.0907166863075761e+00  2.1869578389816775e+00  2.3072348902999438e+00  2.3456833440509008e+00  2.3433171946038103e+00  2.7675769328640225e+00  2.9788392604294605e+00  2.9049483392762321e+00  2.8344325794039826e+00  2.9969783084050681e+00  2.9057160289450539e+00  3.0740494046094908e+00  3.1350320853291862e+00  3.1608942827937354e+00  2.9908835072966387e+00  2.8141120947635829e+00  2.6874777335851272e+00  2.5506588438471001e+00  2.5652974036285729e+00  2.5090430389307854e+00  2.4095710960020047e+00  2.2540103432902456e+00  2.1285343453734553e+00  2.1523514416177614e+00  2.3049809352140991e+00  2.4898752454727542e+00  2.5288072001662472e+00  2.3421481135223172e+00  2.0952793254508344e+00  1.9342882728353541e+00  1.7928488903715636e+00  1.6547944913675947e+00  1.5178364215883695e+00  1.3889932135434766e+00  1.2681085421283527e+00  1.1500577213218397e+00  1.0330846207033240e+00  9.2577520877045860e-01  8.3774756031868014e-01  7.7097759821819256e-01  7.1569204267659192e-01  6.5739768102714025e-01  5.8945306849950163e-01  5.2518362519655049e-01  5.0295974998527571e-01  4.7647403270596494e-01  4.5091684320996817e-01  4.2971808241358944e-01  4.1512110144884629e-01  4.0742098865672283e-01  4.0399830088250033e-01  4.0250726909473861e-01  4.0150058583070347e-01  4.0135806874669583e-01  3.9113893661472726e-01  3.7638988640872739e-01  3.6584236694039163e-01  3.5988570256634078e-01  3.5788223824772852e-01  3.5851594163136125e-01  3.6049529032322419e-01  3.6260992435220896e-01  3.6442353992940246e-01  3.6790093808865082e-01  3.7498485239220081e-01  3.8431900529925217e-01  3.9324557265858961e-01  4.6061826840467868e-01  5.4590781476549066e-01  6.2262784805614946e-01  7.1846268724874995e-01  8.5746121613206094e-01  1.0292242047351261e+00  1.2101784322225535e+00  1.3792210450562474e+00  1.5144410289591206e+00  1.5999933045344537e+00  1.7084520234562872e+00  1.8688333156620787e+00  1.9624298467138022e+00  2.0282593685436412e+00  2.1191685373811393e+00  2.2467624164555540e+00  2.3678094849065356e+00  2.4421342224619220e+00  2.5733971426292599e+00  2.8329812064866609e+00  3.0682884851736976e+00  2.9735150375977462e+00  2.7428654327783843e+00  2.6306233989432224e+00  2.4174531880129702e+00  2.1587599879527120e+00  1.9273100670603385e+00  1.6842563134163235e+00  1.4224646747977028e+00  1.2944992653309526e+00  1.2077848971549678e+00  9.7414210398396339e-01  7.1785422767138640e-01  4.6794867813872565e-01  3.6246229475210556e-01  3.7154198405665084e-01  3.7178652875325435e-01  3.5092499325686755e-01  3.3724371900686989e-01  3.4915765544128030e-01  3.4594396654104237e-01  3.8487592182198016e-01  4.4564915304118757e-01  5.0171368454542931e-01  5.5627770945519905e-01  7.5321361854089497e-01  1.0122166568517179e+00  9.9013720406953598e-01  7.8985477691049089e-01  5.0795043208021318e-01  4.3473608357792815e-01  3.8629420218859256e-01  3.6970823447315082e-01  6.3079191292851866e-01  9.4426156016197438e-01  1.2873520320292398e+00  1.6727929857097559e+00  2.0926314585818218e+00  2.5421148925551806e+00  2.9516409514377502e+00  2.9398763179483578e+00  2.9395257787328415e+00  2.9872281398867067e+00  3.2244123080684917e+00  3.5347382854040594e+00  3.4077510875201105e+00  3.3052742326843902e+00  3.3048176972566399e+00  3.0334044954045014e+00  2.6297052223383006e+00  2.2236638490604665e+00  1.8427874096653842e+00  1.5882618224989744e+00  1.1119047718918300e+00  6.9589312957974214e-01  5.5282906061166626e-01  6.4092679417273690e-01  9.4579227182547976e-01  1.2925229077531311e+00  1.7323695471396183e+00  1.5222439771788914e+00  1.3143591135265678e+00  1.1781602106496469e+00  1.1579457582968320e+00  1.3540001417924901e+00  1.4726961561036247e+00  1.3462835427688928e+00  1.1294987115041963e+00  1.1623223153567495e+00  1.6681678303457059e+00  1.6673080245312264e+00  1.4954009017185774e+00  1.3438093491027052e+00  1.4960845094125672e+00  1.6359898692448378e+00  1.7906213459344560e+00  1.8151192137164978e+00  1.9678098128428889e+00  2.4210171016247077e+00  2.8896820247124784e+00  3.2529128289962737e+00  3.0328077292960973e+00  2.8636878588923982e+00  2.7435604827643503e+00  2.4159551401487671e+00  2.6135389655822916e+00  2.5179845121861129e+00  2.6305687168165730e+00  3.0793658909560295e+00  2.9264700060876274e+00  2.5358834046301646e+00  2.1826849318347628e+00  1.8170389302282430e+00  1.8241323570931864e+00  1.6081073890860789e+00  1.3135334625084796e+00  1.0085952502414806e+00  7.8852832049214339e-01  7.0506456502724002e-01  7.3942344874558907e-01  9.2736271586779839e-01  1.2031994729688542e+00  1.5298225615686336e+00  1.8730224547273191e+00  2.1662204066607074e+00  2.0896590310064513e+00  1.8964902981975100e+00  1.8638830583051891e+00  1.9678120043393612e+00  2.2800005681999336e+00  2.5428082780296490e+00  2.5226686348548020e+00  2.3925265374955851e+00  2.2965098108356701e+00  2.2301398471453830e+00  2.1289969635681043e+00  1.9848461030037101e+00  1.7980752571555989e+00  1.5869247739138619e+00  1.3926835220766545e+00  1.2115625041759026e+00  1.0647039754129739e+00  9.2887892458516830e-01  8.0583141992150142e-01  6.9449526480518220e-01  5.9627003285613100e-01  5.2663108732314057e-01  4.4115358072149286e-01  3.4897759756769842e-01  2.7704932585837971e-01  2.2588478410451765e-01  1.8721194696404100e-01  1.5594404517346933e-01  1.3070040514234668e-01  1.1202463215345917e-01  9.7491448911448966e-02  8.4042831775022253e-02  6.6657668081516630e-02  5.1996791844254993e-02  4.6041339111858134e-02  3.6315408728937418e-02  2.5030082890227092e-02  1.7806248508067377e-02  1.5167003287054358e-02  1.4444885411151827e-02  1.2408874339417484e-02  1.1355804273124595e-02  9.9102213011861978e-03  6.9754821719485993e-03  6.1440594671800302e-03  1.4595671562266433e-03  7.5512845214738636e-04  3.3597193282554631e-04  2.9027166842304498e-04  3.3110914408670243e-04  4.3726024191394206e+00  4.3910993317298059e+00  4.4143927841211106e+00  4.2737674350900026e+00  3.9979188697194905e+00  3.8340446319315182e+00  3.7095419966479719e+00  3.4682746598730674e+00  3.4672552272680730e+00  3.4737924549260519e+00  3.8638379499819520e+00  4.0218571677068145e+00  4.0994855191909458e+00  4.2183414460470905e+00  4.2608759441926711e+00  4.2845704747510407e+00  4.1763720528863306e+00  4.1261804531171027e+00  4.1030187718444964e+00  4.1078657635250364e+00  4.1344295945126959e+00  4.1466276012444565e+00  4.1798457691140491e+00  4.1972639190481775e+00  4.1962599598194954e+00  4.2194004618747076e+00  4.2889896421249389e+00  2.6588364209422077e-01  2.9960576934864197e-01  3.5257961927290504e-01  4.0596890177855605e-01  4.5806174681682560e-01  5.1651686697422483e-01  5.8115439587908735e-01  6.3391482602029026e-01  6.9523494857293600e-01  7.7402281699961839e-01  8.9466558646846162e-01  1.0487611086313238e+00  1.2101788863142897e+00  1.4034369979874963e+00  1.5898299467238781e+00  1.8125507188607599e+00  2.0286617217878926e+00  2.3252065139884652e+00  2.6095494042875229e+00  2.6540237309463524e+00  2.5699364439363666e+00  2.5146173044553697e+00  2.3403864659408491e+00  2.0290683387675488e+00  1.6649053773143854e+00  1.7239873369529519e+00  2.0088244230630643e+00  1.9911592888294058e+00  1.7681312952760950e+00  1.8852275306050221e+00  2.1414418978497656e+00  2.2627173896006076e+00  2.3180483973413262e+00  2.3352674871070427e+00  2.5619072370724973e+00  2.8665310475988552e+00  3.0554623440887139e+00  2.8629879889341039e+00  2.9135422313273187e+00  2.9417947232366508e+00  2.9859229611816640e+00  3.1274769199381058e+00  3.1410092318535385e+00  3.0726359945037700e+00  2.9088496927831105e+00  2.7478115629987117e+00  2.6173646499789007e+00  2.5540877579147407e+00  2.5352011446513134e+00  2.4582516398991530e+00  2.3351461640219449e+00  2.1907987660470054e+00  2.1407478622858482e+00  2.2294677344287264e+00  2.3982396996669664e+00  2.5096000307964044e+00  2.4348431182347285e+00  2.2178094702808959e+00  2.0142545890663630e+00  1.8659348280268420e+00  1.7235987690820189e+00  1.5859932500015972e+00  1.4531562455835609e+00  3.7984450029216726e-01  3.8896013298463972e-01  5.8465617892148070e-01  6.7086523556840416e-01  7.8789049399368327e-01  9.4289570237659670e-01  1.1191948049086635e+00  1.2944228041449262e+00  1.4470155367708970e+00  1.5579167381263728e+00  1.6546228886914840e+00  1.8046689887431671e+00  1.9154130855285121e+00  1.9955612110606478e+00  2.0735156970437356e+00  2.1822940998753402e+00  2.3067781579690001e+00  2.3982037330889865e+00  2.4898954140057139e+00  2.7018522727964793e+00  2.9495463434399531e+00  2.8571024136457592e+00  2.6864897359170974e+00  2.5230973869959614e+00  2.2919889777056017e+00  2.0441202167397385e+00  1.8084015374351665e+00  1.5536299098197901e+00  1.3554117596870687e+00  1.2488161608106501e+00  1.0924047526396219e+00  8.4739120002223078e-01  5.9379133700363618e-01  3.7749341590143493e-01  3.6734341985540520e-01  3.7196953317225651e-01  3.6161874901112462e-01  3.4434610712186919e-01  3.4333486857581441e-01  3.4790623329981774e-01  3.6504408557122281e-01  4.1462878961258126e-01  4.7317292074471795e-01  5.2852051701867775e-01  5.9974902348579062e-01  8.8031897528688452e-01  1.0051632870398231e+00  8.8846383357654768e-01  6.4639527072747427e-01  4.6993351118499904e-01  4.1030269755739696e-01  3.7894012687471335e-01  4.8627606303667553e-01  7.8601265358137828e-01  1.1126309817691249e+00  1.4762031926781569e+00  1.8794099381029103e+00  2.3143768670421840e+00  2.7451887111520143e+00  2.9419942747945971e+00  2.9332213535982246e+00  2.9554114670475804e+00  3.1018283677362808e+00  3.3734497792307310e+00  3.4647617243224014e+00  3.3615774990986624e+00  3.3054343755334115e+00  3.1747948017008838e+00  2.8369097773268388e+00  2.4317205534919455e+00  2.0394762910894735e+00  1.7148287566876639e+00  1.3468197677082334e+00  8.2920639226734605e-01  6.2265358053746356e-01  5.3926242388490064e-01  7.9428558874349808e-01  1.1197875149185523e+00  1.5122432977352931e+00  1.6077358703253646e+00  1.4160682476932918e+00  1.2456932690636018e+00  1.1709078771939567e+00  1.2625463369254413e+00  1.4201778723080052e+00  1.4089645420199763e+00  1.2393156794368554e+00  1.0822628045034035e+00  1.4122836556158942e+00  1.6677153883044877e+00  1.5685856165479399e+00  1.4195515257170339e+00  1.4284079900972189e+00  1.5773113058448802e+00  1.7248366999536158e+00  1.8046425346952961e+00  1.8861693027756847e+00  2.1893821660917947e+00  2.6572904370585877e+00  3.1598483807596711e+00  3.1380643496522560e+00  2.9414189060286380e+00  2.8087920380193787e+00  2.6438093668513583e+00  2.4865214272232050e+00  2.5593726921628699e+00  2.5706948805051457e+00  2.8746209565251579e+00  3.0025451972594741e+00  2.7285430409590123e+00  2.3570615093417198e+00  1.9972838475515635e+00  1.8207161951663666e+00  1.7150802462097867e+00  1.4576364393505596e+00  1.1631334831072508e+00  8.9288007645992429e-01  7.4695127206671685e-01  7.2846659925754198e-01  8.3110289002988158e-01  1.0526213219689862e+00  1.3629889122251462e+00  1.6979401229822506e+00  2.0186645061426716e+00  2.1371250679847771e+00  1.9856968643149893e+00  1.8767791834348686e+00  1.9091250611658332e+00  2.1264072871346125e+00  2.4066106189590624e+00  2.5883043687250828e+00  2.4577336685713518e+00  2.3275245094323394e+00  2.2640411170642105e+00  2.1936219982109657e+00  2.0591578157221768e+00  1.9037843051675465e+00  1.6941042594130629e+00  1.4907901675255526e+00  1.2911221699312656e+00  1.1389687725778881e+00  9.9721470975223725e-01  8.6335486636811631e-01  7.4822530846305002e-01  6.4436604501894335e-01  5.6208662222590855e-01  4.8664997578236585e-01  3.9625743042874695e-01  3.0981726516827079e-01  2.5207638399206428e-04  2.5702139164950305e-04  2.5065911351077557e-04  1.9366414366578144e-04  1.8467857897646833e-04  2.0483561936743795e-04  4.4105144917461381e+00  4.1270762516319586e+00  3.7662269840736537e+00  3.5790515385345536e+00  3.6829501604389279e+00  3.9428269463135330e+00  4.1654231810545612e+00  4.2775325428221294e+00  4.2314125190595666e+00  4.1190903457071286e+00  4.2058577992571600e+00  4.1967267160560908e+00  4.2532226577347894e+00  4.3309210556529205e+00  6.5390738327962084e-01  5.8754264908545006e-01  6.1176524384365993e-01  1.5053829353502461e+00  1.5650950149431675e+00  1.5083761990305504e+00  1.5576381347538382e+00  3.5331986476865207e-01  3.3007396620154489e-01  3.1199787392959499e-01  3.8278671192380126e-01  2.0966118737538055e+00  1.9917865841571427e+00  2.1308759708822804e+00  2.3118558640893809e+00  2.1986235382751951e+00  2.3405086661464423e+00  2.0410280541094679e+00  2.7029594110264599e+00  2.5051694448083444e+00  2.6388101055494522e+00  4.9652378647718254e-01  6.3106524949657672e-01  4.5991255788257518e-01  4.3464242464570164e+00  4.3126072581887396e+00  4.3570097402176033e+00  4.3738549614075515e+00  4.0621310699796931e+00  4.1551658391535078e+00  4.1682002179183275e+00  2.6571929929654967e+00  2.7316802943024761e+00  2.8201634138264042e+00  3.8475860139938223e+00  3.7979565844029293e+00  3.7673038488916064e+00  3.7358942324163626e+00  2.8411516330312958e+00  3.7447118957113736e+00  3.8842974416860745e+00  3.6160706279729835e+00  3.8178979316419541e+00  1.9547270169869297e+00  2.2445879640137281e+00  2.2702026374259714e+00  9.8330358061182133e-01  1.1528341157862223e+00  9.0273412121097341e-01  2.4766153381482079e+00  2.3390101865727013e+00  2.4054250678747207e+00  2.8042870434214828e+00  2.4520310112794412e+00  2.5696468826012455e+00  2.6792892329282862e+00  2.5124049185637869e+00  2.7450282071644883e+00  2.3988253594214060e+00  2.4445372366694738e+00  2.5157422902310755e+00  1.1993299910872401e-03  4.9420044743900817e-03  2.9067256089556669e-03  1.4131920076945992e+00  1.4209979565164796e+00  1.4841020918872401e+00  2.0361731558666625e+00  1.8606354825709417e+00  1.8616930570276096e+00  3.1957681766058856e+00  2.9913374239203088e+00  3.1375769456476066e+00  2.9407077228824265e+00  2.3322478191190821e+00  3.5669665757243174e+00  3.7414789900167293e+00  3.6512032713658140e+00  5.0835738654217844e-01  7.3705329466288882e-01  5.2265219845033095e-01  3.5730855690837693e+00  3.5010680107211876e+00  3.5106474538191774e+00  2.4125778491495846e+00  2.0798185575080455e+00  2.2793850554077419e+00  1.5179100009644082e+00  1.4892413896504277e+00  1.4261813340644842e+00  2.5281287583314906e+00  7.1870928624316499e-01  1.4710551574167696e+00  3.4250310468619651e+00  2.4473440608941237e+00  2.3651312755748535e+00  2.2585286057370655e+00  2.4780041552155163e+00  1.2438506407008503e+00  3.1552824631589584e+00  3.0982269989598130e+00  3.0263381022677311e+00  2.3972758325682002e+00  2.4635283270830941e+00  2.8417853360399929e+00  2.2064444501408924e+00  4.3404198621382123e-01  4.0507598000353384e-01  2.4836609078757865e+00  2.3371572699078920e+00  2.0422436041888954e+00  2.2499447190682709e+00  2.2033235653665977e+00  5.8119049886922691e-01  4.4742103597374372e-01  3.5821449573805277e+00  3.6472176739178255e+00  3.6723497563538161e+00  3.5858790084629177e+00  3.0138601669713019e+00  2.9841336808062335e+00  2.9710552044414951e+00  2.8596580609265838e+00  2.8539809230760360e+00  2.7865030261430999e+00  2.6308940639027698e+00  2.5574448611919074e+00  2.8119130278908004e+00  6.2894998405614566e-01  3.4743231843900215e+00  3.3277688847168618e+00  2.6403167059724848e-02  2.3130616387164758e-02  2.4022928257866533e-02  2.2342547491416218e-02  1.4592475223188568e+00  1.5503813304945178e+00  9.8198538802636992e-01  1.0041920225459873e+00  1.1940153926042121e+00  1.2083415094422869e+00  7.7258644217647687e-01  2.6666331896257454e+00  2.7460526201553055e+00  2.6558610958874458e+00  1.8368801519907139e+00  1.5603136025669817e+00  1.9644685853302408e+00  1.4378508433007149e+00  1.0882100085909590e+00  1.2909040733926225e+00  1.0720463732846421e+00  4.6620395060211961e-01  4.9580344895591677e-01  4.5450435863702987e-01  5.4706181717105631e-02  6.9230116365555039e-02  5.8907231120893425e-02  2.4149425618677900e+00  2.5104634425434935e+00  2.3715582291504038e+00  5.1118430477262289e-01  1.2686689619054887e+00  1.4292334941562044e+00  1.4651045190754002e+00  1.4235147252290012e+00  1.5812689652138521e+00  3.4735800165761064e+00  3.4542809130556948e+00  3.3393172991996840e+00  3.2877511238529289e+00  4.1768364997554350e+00  4.2047610814813687e+00  4.3171043523513335e+00  1.5835521711289253e+00  2.5918888017438602e-01  2.4557619443936135e-01  2.8703634512990717e-01  3.1966488271460345e+00  3.0339486069311037e+00  3.1422678561113466e+00  1.8936912860507857e+00  2.2658365408292531e+00  7.9680486487482072e-01  7.5593995831215044e-01  8.4181443089776098e-01  7.3623613636925700e-01  2.7123366846959938e+00  2.8380115035846343e+00  2.8599212156380549e+00  1.3715104080623870e+00  1.2986263868467676e+00  2.6263720561252555e+00  2.9970002812237881e+00  2.8382474436180516e+00  2.7749844802490196e+00  2.0469932164861899e+00  2.0463080070941295e+00  1.9331854400919388e+00  2.8634891646786542e+00  4.1739211000104059e-01  4.1281126280254460e-01  3.8767729573448728e-01  3.5500653787544292e+00  3.3790442046690607e+00  3.6183870280871862e+00  3.2764656913977190e+00  3.1954241258470479e+00  2.9996566645788652e+00  3.3052959089651441e+00  1.8585333676367537e+00  2.0081111417080422e+00  3.2854851830086789e+00  3.1265013006649882e+00  2.8272479027221449e+00  3.0724246342277524e+00  3.0702578483185032e+00  3.4504428183216418e+00  3.4178058979688197e+00  3.5374781626437577e+00  3.8909145304952339e+00  3.8491559832050943e+00  3.8075964794350234e+00  1.6538088198154317e+00  1.6095395221512554e+00  3.5328466956684803e+00  3.4570854962353184e+00  3.9536299838961597e-01  3.7695421458536765e-01  3.6898864896062317e-01  2.8179241261980779e+00  2.7193025195229796e+00  2.8134474253991630e+00  2.7172842029475066e+00  2.4774380993702292e+00  2.4297655972534291e+00  2.5827631150812973e+00  3.2564355561288001e+00  3.4027973833739433e+00  3.2903784395721205e+00  3.6645593219732051e+00  3.6512410799876793e+00  3.6149856816176471e+00  2.9580949367379556e+00  3.2586221738655921e+00  3.2222278353167320e+00  2.5172448093833570e+00  2.6514771940023296e+00  2.4832811162939974e+00  2.7126954558992917e+00  2.6561902285071430e+00  2.6665691055886640e+00  4.3739140543468533e+00  4.2455131246569762e+00  4.3235273884639902e+00  2.9419721916859465e+00  3.1990061573717292e+00  3.0760524010362595e+00  3.0789198429989604e+00  1.3642099820023676e+00  1.4193298819789562e+00  1.4783140479502781e+00  2.9996969387108807e+00  2.9362216597228237e+00  2.9576364617619944e+00  3.9421539096443121e+00  4.0785966871134347e+00  3.9916682008362132e+00  2.5919437648867287e+00  2.4928216582372347e+00  4.1104205623444354e+00  3.1542974860825534e+00  3.2433209782952872e+00  3.4169539644147422e+00  3.0984227827844917e+00  2.085421100632511