<?xml version="1.0"?>
<VTKFile type="UnstructuredGrid"  version="0.1"  >
<UnstructuredGrid>
<Piece  NumberOfPoints="747" NumberOfCells="1165">
<Points>
<DataArray  type="Float64"  NumberOfComponents="3"  format="ascii">56818.26305072499 -2506106.549119427 0  42243.18265024776 -2506857.639328673 0  29021.82503270428 -2504261.924403077 0  16550.12421826219 -2499855.084024415 0  4655.032296222308 -2495697.422200306 0  -7261.504300492456 -2494323.621393709 0  -18625.22209185599 -2493319.244519799 0  -29276.70419068305 -2491316.102597814 0  -39371.58555411869 -2489334.610554085 0  -48872.2887625367 -2487148.664179707 0  -56975.1983834749 -2482507.606906727 0  -64856.00389190487 -2478322.793323702 0  -73044.09528138349 -2475914.932075506 0  -80956.89453806292 -2474104.027428716 0  -88297.01099239565 -2471721.028140273 0  -95122.34251075231 -2468979.68610345 0  -102033.0976717825 -2467743.453790383 0  -108667.8585333195 -2467170.433637599 0  -114915.9932325953 -2465984.168528114 0  -120845.1804641294 -2464950.543945178 0  -126578.8706923529 -2464806.636550912 0  -131905.6385080613 -2465871.725308503 0  -137064.687279085 -2466513.84235653 0  -141931.6894689468 -2467114.408289441 0  -146558.2518132151 -2467929.3528441 0  -150981.1782706213 -2468467.119438711 0  -155134.7485423184 -2469150.351715567 0  -159045.2990449393 -2470116.702174883 0  -162783.5633652424 -2470995.874606837 0  -166363.671458142 -2471566.36883454 0  -169791.2094945778 -2472089.92531744 0  -173066.7170363216 -2472372.644023074 0  -176180.8272511644 -2472318.589143077 0  -179127.4549433015 -2471957.228690146 0  -181904.9538427488 -2471408.024018189 0  -184523.0000848745 -2470783.818157519 0  -187005.1824092157 -2470191.610932166 0  -189371.4710935979 -2469697.441393066 0  -191637.2486669229 -2469286.956885205 0  -193813.7840475813 -2468932.72635197 0  -195894.9751436561 -2468622.32397195 0  -197860.5122662469 -2468356.257574914 0  -199699.8496405249 -2468131.239090017 0  -201484.3799547247 -2467852.578310028 0  -203235.1081836333 -2467477.120196301 0  -204148.4039899458 -2468231.328417643 0  -204779.4006070163 -2469477.772737175 0  -206226.3182912302 -2469895.043213626 0  -207209.0484690831 -2471050.353437294 0  -206633.7342709575 -2472198.562901576 0  -206689.2205673746 -2473699.963528 0  -207439.3355646643 -2474578.344737141 0  -208686.077261504 -2475226.075148567 0  -208911.224951669 -2476610.681926033 0  -209786.4032029276 -2477610.304923216 0  -210530.8593792382 -2478701.972600761 0  -211347.3117581898 -2479598.487775704 0  -212436.1994711102 -2480321.158208149 0  -211661.3579813032 -2481227.303558039 0  -212339.4592376566 -2482164.498648201 0  -213368.6786835724 -2482893.361192783 0  -213823.9242874084 -2483849.45466838 0  -213959.3389029546 -2484975.339969706 0  -214654.5105929325 -2485857.893728198 0  -214924.9636302208 -2486897.99052352 0  -215387.1968803907 -2487861.977722809 0  -215850.8935184235 -2488606.845677634 0  -216850.3002300822 -2488718.42607849 0  -217786.1788875306 -2488773.814743428 0  -218655.6596527224 -2488960.510713411 0  -219459.2999881662 -2489050.843080118 0  -220215.8572609511 -2489415.86959818 0  -220949.8949656503 -2489578.990779826 0  -221671.8184129359 -2489638.232601265 0  -222360.8395383537 -2489613.467831609 0  -222996.7344008797 -2489634.843068176 0  -223565.7511683207 -2489892.292788903 0  -224056.7930683517 -2490349.213746534 0  -224487.3350267241 -2490843.9928667 0  -224917.776609416 -2491084.259717198 0  -225385.9512610532 -2490939.6600004 0  -225871.0057115029 -2490692.412192973 0  -226347.6588061106 -2490593.974681439 0  -226807.4764604085 -2490599.669749292 0  -227247.6549526961 -2490611.50259405 0  -227666.4916287626 -2490611.945233863 0  -228063.1258911103 -2490614.649470013 0  -228437.2792766626 -2490619.621715965 0  -228789.0148414041 -2490611.440145575 0  -229118.6979285175 -2490579.661792117 0  -229427.7721220893 -2490551.675512337 0  -229718.2857126026 -2490575.632414152 0  -229992.0195062686 -2490686.778079117 0  -230250.5004979436 -2490869.571547285 0  -230495.0197162354 -2491060.637110347 0  -230726.6693575185 -2491208.220350035 0  -230946.3810285181 -2491273.695406383 0  -231155.1727872346 -2491240.482369016 0  -231354.5763814056 -2491151.916669652 0  -231546.3204437924 -2491058.490694704 0  -231732.1881906295 -2491000.058362073 0  -231914.0081666783 -2491009.477644776 0  -232092.2357485933 -2491100.02032591 0  -232263.9691545902 -2491246.068674924 0  -232425.9547039263 -2491419.407037552 0  -232574.5133449228 -2491597.360932464 0  -232704.8009038861 -2491776.874946281 0  -232810.4395700074 -2491960.360275827 0  -232883.2341085825 -2492150.113137818 0  -232912.9947800571 -2492348.349496039 0  -232888.518304726 -2492556.97189473 0  -232809.3398841225 -2492774.886297886 0  -232684.053466982 -2492998.772055723 0  -232523.4050637269 -2493224.618723386 0  -232341.870709994 -2493446.437774289 0  -232149.8049278373 -2493655.556957558 0  -231926.4623607639 -2493840.270994475 0  -231648.985213168 -2493990.591921999 0  -231333.5089516883 -2494114.232577013 0  -231011.2867655237 -2494226.909041754 0  -230716.5565724511 -2494352.83929517 0  -230448.2156366009 -2494566.308324145 0  -230174.691868224 -2494859.203920859 0  -229854.386277046 -2495099.245907737 0  -229456.0482055206 -2495181.232778375 0  -228998.936468587 -2495162.974046715 0  -228517.5500007842 -2495146.384058104 0  -228039.7566338337 -2495203.170887594 0  -227590.3999753736 -2495397.522350929 0  -227184.981929657 -2495766.19833274 0  -226750.2922870113 -2496024.476637892 0  -226213.5702095754 -2495994.660255382 0  -225600.3011662167 -2496052.877603892 0  -224958.9944484101 -2496261.85032066 0  -224327.7512929673 -2496330.814093316 0  -223631.5812784273 -2496280.649748585 0  -222879.2998883054 -2496301.667794817 0  -222254.9783848506 -2496634.523083093 0  -221626.1319051044 -2497065.090720322 0  -220761.0581340182 -2497211.459477382 0  -219968.5459241767 -2497393.939598728 0  -220203.5455070361 -2497899.480461085 0  -220855.9220298611 -2498603.237242675 0  -221131.2246077028 -2499252.862384938 0  -221774.7122121719 -2499660.862433717 0  -222479.7107982228 -2499760.827055608 0  -223033.1183148655 -2499984.859791101 0  -223490.2596104009 -2500462.200395656 0  -224062.3926326139 -2500600.027660071 0  -224541.1956214423 -2500228.786139573 0  -224949.7350095029 -2499888.083019758 0  -225341.0500730075 -2500225.130315016 0  -225757.1423292761 -2500548.432558256 0  -226180.3939651776 -2500786.080344201 0  -226538.177938963 -2501153.984901021 0  -226773.495284157 -2501569.98568693 0  -227039.0304909855 -2501911.932245616 0  -227468.9595916819 -2502129.814972885 0  -227798.6047508129 -2502389.299855465 0  -227884.9238541838 -2502832.388358992 0  -228126.2989976085 -2503276.196050428 0  -227861.5342855403 -2503623.445554566 0  -227372.9304734626 -2503907.390885711 0  -226957.5853764467 -2504175.647480549 0  -226606.2579015691 -2504483.304832757 0  -226161.0056828749 -2504866.856449728 0  -225815.0711509458 -2505316.314749662 0  -225762.8994468044 -2505806.079859471 0  -225997.7594286802 -2506242.915512673 0  -226398.1360973342 -2506619.148825204 0  -226765.9297719086 -2507036.084494513 0  -226845.4953021393 -2507500.960872594 0  -226465.0153921999 -2507962.631785552 0  -225845.8228635425 -2508243.541008709 0  -225251.6156104354 -2508190.021993677 0  -224690.1793840567 -2507897.641923884 0  -224100.3548492745 -2507553.624348171 0  -223414.5727227449 -2507371.21363621 0  -222654.4265297953 -2507276.075847208 0  -221912.0382560525 -2507297.337862614 0  -221266.9189332082 -2507785.266418245 0  -220681.0921292723 -2508353.609471263 0  -220062.6686429494 -2509000.329523423 0  -219236.8308144344 -2509174.655190252 0  -218255.6568359406 -2509399.603364403 0  -218572.4131759723 -2510066.725015923 0  -218861.5230561548 -2510964.91864626 0  -218883.3556157417 -2511846.204517832 0  -219353.8346553762 -2512525.731451487 0  -219963.2685976659 -2513082.42119797 0  -220488.7752431028 -2513679.96717993 0  -220885.2380172826 -2514382.263808274 0  -220990.1132767769 -2515108.665935786 0  -221485.0382534687 -2515632.998891791 0  -222155.0186764667 -2516036.139659067 0  -222390.5819874348 -2516597.550678985 0  -221683.5075769027 -2517109.541916781 0  -221049.1691573458 -2517587.936233334 0  -220341.3916149238 -2518020.204995572 0  -219495.2331410376 -2518369.688367899 0  -219546.7035698217 -2519131.218151119 0  -219685.2088385221 -2520038.091014113 0  -219723.4857113709 -2520890.499102236 0  -219511.8253665795 -2521706.050384868 0  -218768.9497051224 -2522318.273173176 0  -218062.3835558011 -2522951.471679174 0  -217792.1932780886 -2523832.754628343 0  -217721.1829300973 -2524802.156087346 0  -217105.5823664274 -2525632.89503949 0  -216114.3489158486 -2526130.198485046 0  -215762.8823642595 -2526977.667966621 0  -215624.0210213385 -2528047.606007989 0  -215626.57696477 -2529136.754249504 0  -215068.1955778405 -2530004.876344503 0  -214353.5819060722 -2530902.512838067 0  -213458.5631825881 -2531647.245829566 0  -212582.3066935458 -2532532.655828057 0  -211601.1993616105 -2533281.698502241 0  -210230.8203599756 -2533492.702960313 0  -209359.9819486135 -2532733.353591639 0  -207963.7301089823 -2532402.039407601 0  -207461.9620998055 -2533726.636299287 0  -206743.678788939 -2535012.373417936 0  -207794.6479248811 -2535697.474151645 0  -208706.2824926935 -2536681.47128792 0  -208662.8240783605 -2538140.018106792 0  -209359.9957095342 -2539157.350742796 0  -209716.6789857079 -2540401.743356431 0  -208811.4519281083 -2541468.645140812 0  -209077.7529802741 -2542648.334750617 0  -210420.4603172865 -2542562.067677911 0  -211621.9917404423 -2542541.993928391 0  -212754.33587808 -2543120.703356035 0  -212519.6312691136 -2544241.062718421 0  -213084.8685374894 -2545195.129669076 0  -214049.5779914909 -2545637.606566725 0  -215070.0904746166 -2545977.323497721 0  -215634.1102203288 -2546825.493334641 0  -215621.16885731 -2547930.190942091 0  -214942.2606588054 -2548830.648553029 0  -2
[...]
<CellData  Scalars="f_195"> 
<DataArray  type="Float64"  Name="f_195"  format="ascii">1.4774990963915198e+00   1.2993571155105172e+00   2.7498503249003527e-02   3.8418887567786273e+00   8.3188573507496377e-01   1.2189529380080828e+01   8.3856495003138143e+00   1.2380661927843231e+01   3.9907325197675130e+00   1.1856848649968786e+01   2.1991862016477057e+00   8.6575085695190768e-01   8.3172110792968690e-01   3.7519461336276319e+00   8.1337001933657094e-01   2.0239391444696953e+00   1.3119102775453828e+00   2.1083946989063271e-01   9.0851611245532371e-01   6.4111919928193837e+00   9.3073840689213250e-01   1.1662446278384977e+00   1.0248492227132642e+00   2.8757462304268691e+00   1.3630901790469696e-01   6.1066816572596672e+00   1.0577782307878518e+01   6.5956252467148531e+00   1.0365505607357967e+01   9.0073205944399941e+00   2.7964330128804167e+00   9.0420838020306995e+00   9.8147705314176772e+00   4.9354096982483906e+00   4.4262603421612852e+00   7.6894252719667495e+00   1.1218847781355530e+01   1.1910931586668523e+01   3.0148252673782663e+00   6.4611226339366175e+00   1.1238819450187806e+01   8.5358357766322861e+00   5.0475963952912775e+00   8.3652678857847462e+00   9.3234922449628588e+00   8.0444290289289579e+00   1.0137468854383282e+01   9.5099544142102808e+00   3.4161240195734943e+00   1.0316303453911910e+01   1.0468916058242401e+01   8.5298846858215194e-01   9.7877522981968212e+00   9.8032106064558833e-01   8.3399026914237351e-01   6.7211030647438195e+00   6.6794499543276356e+00   1.0943860340492403e+01   8.9882369016979169e+00   1.1246170728236727e+01   8.8688854508902768e+00   4.1937928546492138e+00   7.5559616606286468e+00   8.7629543318538765e+00   2.6866991296017466e+00   3.4208101134416324e+00   1.0184049183410484e+00   3.0582299082714903e+00   2.5819264449576460e+00   9.8434331461826741e-01   4.6908183682314686e+00   1.0061702832601045e+00   9.8157924626062798e-01   9.2242005010077790e+00   9.8242163127647828e+00   8.9032353730445433e+00   5.4832182330259061e+00   4.9599275579486797e+00   2.1910298337535368e+00   5.3747257342746737e+00   5.2844176169538626e+00   7.3493786698484707e+00   7.4322801482323868e+00   8.3526378338515546e+00   1.0728278038605957e+01   2.3270240573793020e+00   7.0055764980240580e+00   4.4700807571494092e+00   8.9986518581811348e-01   8.0596546714092465e+00   7.8733896641320351e+00   2.0607350418299858e-01   8.1458691696649277e-01   3.3024479758015601e-01   8.3089825245964888e-01   4.6021019449988412e+00   8.1011808586103939e-01   8.1366221726258221e+00   8.6307374061012609e+00   8.0372153897957404e+00   9.9017710100344081e-01   1.0146643167287364e+00   1.4199488987700921e+00   2.1300984935069969e+00   9.3931172185136269e+00   5.4540851604260432e+00   5.3147121460300930e+00   5.6782367504340527e+00   6.0768692401221553e+00   8.8382187329588047e-01   5.2895456889093557e+00   2.2784718835578013e+00   1.0483681823304254e+01   1.0544613369587710e+01   7.7442932037697343e+00   1.9058517617123427e-01   5.8898422160912833e+00   6.0095699557217852e+00   2.0629065560456668e+00   7.0165647007366305e-01   3.2040814980422738e-01   6.1551314205400509e-01   2.7255246247917619e+00   7.9004266555252443e+00   1.2105071603518303e+01   1.0608039749002057e+01   8.0506357063957275e+00   1.2224233192452122e+01   6.8495770819783184e+00   8.2635028128938579e+00   6.3506341176507970e+00   6.2463407421368862e+00   5.7246746667131365e+00   8.9070367048355479e+00   8.0840929058889586e+00   1.0829503898750632e+00   1.0978743804459445e+00   8.3477712248090352e+00   2.4429926695906472e+00   7.5903650377799874e+00   1.3173790242824255e+01   1.2202384851493386e+01   1.4077910605833934e+00   1.0317830011734088e+01   7.7117071803233390e+00   3.8574634805255776e+00   1.8937001072965893e+00   6.3953365051464139e+00   1.2828811958736294e+01   1.3646331634496531e+00   8.0403297644425429e+00   8.5310036703757817e+00   9.5255532933136777e+00   1.7480869440318567e+00   8.7748480901980681e+00   8.3316411235735899e+00   3.7808918754897933e-02   1.8499721121355814e+00   3.5693401720354845e-02   5.4282751206625228e+00   5.2329659407086435e+00   9.9213685251222135e+00   5.2420512135487360e+00   9.6599407559641310e+00   8.6852204777671833e+00   9.6691212354949774e-01   1.0437457107294103e+01   4.6725664208582192e+00   6.5070686967762992e+00   9.9281101250464605e+00   9.7481149034944448e-01   9.3905765364353944e-01   4.9435411143358161e+00   1.0295338816192674e+01   1.0435055122941943e+01   1.1018134913757955e+01   6.8244269155083082e+00   3.1470429044231278e+00   1.0490834976859556e+01   1.0381603965733976e+01   1.1161996373813178e+01   6.9504736032639309e+00   5.6402160455887342e+00   3.3694606522443653e+00   1.1036015160190788e+01   1.1050450526386761e+01   9.0614451671650063e+00   4.5819496109894802e+00   1.1309123655633396e+01   9.1042301149266649e+00   3.7148761078682990e+00   1.1033504750412220e+01   3.4362287961769948e+00   5.0079574126224964e+00   9.7607631454466759e+00   3.7827148611966344e+00   1.1939598432462834e+01   4.6123368693565965e+00   4.6974600442360179e+00   1.2065824884646636e+01   2.1074570067031981e+00   3.8722984737141743e+00   2.8790265537760527e+00   3.3745087990906746e+00   3.8360865874500010e+00   5.8503367683812080e+00   9.0024953396696130e+00   9.4480219999126014e+00   3.4477118120645107e+00   8.4600319125596837e+00   8.6072781943184591e+00   3.3664085783739317e+00   3.0751366885978939e+00   1.9247218133463413e+00   3.2125072301048712e+00   9.2216710104572783e+00   1.0395951508019161e+01   5.8628497091347089e+00   5.5956706269577445e+00   8.2037676250534837e+00   4.5260355059877799e+00   9.3147300962626893e+00   5.5114491759539579e+00   1.0022677301761882e+00   8.5487703023182853e+00   2.4787362151576966e+00   1.1193967766465807e+01   9.0715279050163531e+00   1.1156161973162527e+01   1.9089708874148414e+00   5.7001525167265299e-01   1.6289867031074410e+00   1.1109692717024640e+01   9.1192050325011760e+00   9.0195148328528010e+00   1.0340791108185019e+01   6.8343673984980811e+00   1.0039845331210920e+01   3.9445609323366293e+00   1.0402045308753728e+01   4.2100667158109202e+00   3.7795070709143381e+00   7.1870513407772041e+00   7.1398668631122608e-01   1.0784932258825422e+00   9.8682117602375392e+00   3.2640714568543756e+00   1.0121436475436321e+00   1.1614837996651708e+01   1.0588632578357473e+01   9.6941352495897934e+00   7.0718712814022240e+00   1.1024025514859289e+01   1.0727206002141889e+01   8.7683450791531992e-01   1.0148124906240820e+01   6.8093975578197634e+00   5.7785119472790818e+00   5.2200282014005648e+00   4.9553756259457957e+00   4.8901444455027896e+00   7.3325399846527306e+00   3.0256177590330742e+00   3.2984592547870974e+00   2.3507656528816527e+00   7.3462839045408579e+00   5.2597829754201912e+00   6.8413381166271403e+00   7.9950193673699319e+00   8.4702263446601194e+00   9.1891676644510536e+00   9.7232073814027764e+00   9.8719216455542078e+00   9.5427992044362782e+00   9.6216055239065703e+00   6.5455496895379843e+00   1.0025889640292164e+01   2.0805044574035780e+00   7.5349432659333866e+00   9.7953926554389046e+00   1.1604467769777706e+01   2.2289552737550928e+00   9.0591865873698674e-01   1.0567215068900365e+01   8.9665230175238086e+00   9.7259341822044227e+00   1.1454936449621050e+01   8.8943143754199774e+00   3.1973361871857326e+00   1.1281777322419135e+01   8.3413439653928254e+00   6.8462583822837297e+00   7.9996701744387932e-01   1.1421507443328224e+01   1.1607340480495070e+00   9.4288035297368680e+00   9.2956965536322755e+00   1.0017004468952910e+01   9.0427246919471873e+00   9.3526732988673134e-01   1.7794809575881714e+00   1.8507684522863639e+00   1.0324830858443221e+01   5.8226280294864869e+00   4.6454074828391807e+00   8.5381947746871223e+00   6.7800991421849650e+00   1.2600349100101764e+00   1.2507421861344372e+00   1.2151214028318000e+00   1.9221679106880196e+00   8.2426886471331997e+00   1.0566323916008320e+00   6.8027380101880555e+00   1.0684543447019283e+01   4.7980488069589766e+00   9.6186824319154485e-01   9.3632642446301761e-01   3.9817674146954567e+00   4.0769054635296413e+00   4.5373811264250188e+00   4.8060283226919447e+00   9.4453656092888572e-01   8.3047978518628973e+00   8.3432999501879812e-01   3.3476260228459012e+00   4.7912261937653193e+00   6.8162929467319540e+00   3.3889191809772319e+00   7.8474749929918417e+00   7.2133428469082137e+00   6.1672359910917027e+00   7.6723022214947711e+00   5.3547907033290771e+00   3.2442332897133404e+00   5.5402192459332014e+00   9.7861045824384874e-01   3.5934877463037647e+00   7.3812282783068524e+00   8.5361028045704099e+00   1.5670308735858978e+00   7.2303591636524995e+00   9.9350297472385829e-01   9.9487801735184505e+00   1.2282501783962525e+00   4.6715723510752758e+00   3.1952057902685194e-01   1.3394187265258530e+00   2.3530111795211552e+00   1.6020441415547676e-01   1.8810752468454934e+00   1.2760537098598482e+01   1.4961716635884550e+00   6.6481757097412766e+00   1.3606713985509344e+00   3.3479986584208293e-01   9.7872971786179197e-01   1.1281260235838594e+01   5.3350751159152034e+00   5.3234784657212673e-02   5.2761391000905524e+00   4.5000852293755793e+00   4.8350864040882735e+00   5.3351407199692780e+00   5.2836626021222228e+00   1.1292789888595497e+01   1.0850927930522934e+01   8.8808006213114432e-01   4.1467147669101631e-02   1.3607181577777068e+00   9.4657946119457606e+00   5.8207929605054165e+00   4.3637444155095793e+00   8.4741421783628734e-01   7.9403855267156596e+00   1.4618355741400522e+00   9.4237453660856740e+00   6.5829971636345199e+00   4.8242760592720195e+00   1.0237390989154651e+01   4.6432010878908940e+00   8.1017562028282182e+00   7.9466861053456750e+00   5.0520865134045838e+00   1.0312710991624106e+01   1.0125435338061976e+01   3.1286234550568759e+00   9.7866187049987481e+00   5.2369022791407254e+00   1.1258072160662731e+01   8.4299587553706488e+00   4.8188484818366302e+00   1.1013060851902154e+01   1.1300729195180066e+01   8.8745461167589799e+00   6.1658952290975666e+00   1.1709557042700143e+00   6.4181714559233560e+00   1.2477345466223829e+01   1.7992503759611969e+00   1.6628002513625151e+00   9.1360482550841002e+00   3.3314509117746445e+00   4.7001589788824560e+00   4.2739732924267315e+00   1.0226578405765281e+01   1.0154531189883578e+01   3.3027297680637915e+00   3.2147308938927259e+00   9.4014959253512345e+00   1.2654574277422685e+00   9.3959978155995252e+00   1.0866598334768156e+01   1.0873458655654618e+00   1.3607717640985530e+00   1.0379973972939591e+00   1.0550077964222098e+01   1.1315980853643694e+01   9.8292815804665157e+00   1.2006109884947691e+01   2.9329826636643430e+00   1.1112775980190838e+01   7.6780713476270721e+00   7.0122141966589258e+00   1.0481046301203754e+01   1.0338330571070340e+01   8.7523095821963981e+00   8.8431866718279100e+00   1.2134739764635862e+01   1.1570863370906238e+01   1.1051584070295453e+01   8.3728583130800178e+00   8.2395793873787804e-01   7.2705084561927977e+00   1.0175744839468958e+01   5.1212694714721998e+00   5.4455164485534509e+00   4.9136889681225373e+00   9.5747248283221325e+00   9.7876786586842073e+00   5.1884467796086209e-01   2.7649325760952381e+00   3.3163881372290773e+00   2.6045456607282156e+00   2.4491202344508252e+00   2.4387645656256147e+00   1.1149246490055123e+01   7.6803064604447524e+00   7.2442191974563563e+00   7.8205172352560002e+00   7.4335829605954995e+00   7.1738839635861744e+00   1.1476503358427417e+01   1.1277491372153424e+01   1.1162526767951043e+01   3.4231764893988048e+00   1.0454576926523458e+01   4.1776305355333285e+00   4.4552139496402585e+00   1.0804454831322441e+00   1.3639735562238513e+00   1.1405011143349217e+01   8.0675505444601452e+00   1.0024810137693245e+00   1.0092964923596308e+00   9.2568441819815774e+00   9.3773256504127449e+00   8.9410310778888924e+00   6.4018381050725370e+00   8.4404367108858906e+00   5.5240538678605304e+00   1.1460994847318133e+01   1.0874312154983128e+01   1.0368550051926348e+01   7.5235253802700832e+00   1.1661996030724153e+00   1.2301620485989790e+00   8.8257644474728103e-01   8.6394824461060171e-01   2.0099240870867288e+00   1.1032481691727021e+01   1.0834960673635331e+01   8.6446851666688822e+00   8.7796003556057478e+00   1.0501204438587290e+01   7.2784138355927697e+00   1.1139253396497754e+01   8.8301824349651148e-01   9.8142212878906943e+00   4.7842776328685046e+00   1.0069807164489916e+01   9.6482119601435326e+00   9.4792205590965288e+00   1.0109759403032209e+01   4.4147518439750968e+00   8.9093267995887571e-01   9.4768635428054637e-01   8.0700182756733829e-01   4.1429180678305517e+00   7.5920789115295131e+00   8.1458288827448877e-01   7.7982268878377348e-01   8.0199319963588689e+00   9.0658581889897150e+00   8.5093343374333088e+00   7.2350069752639241e+00   9.6542169133856941e+00   9.5142700208575572e+00   9.1104814717096687e+00   9.2106997159479800e+00   1.2438681957085371e+00   1.1563656828967113e+00   6.6298683460154173e+00   5.5448498907102870e+00   6.2990360639549188e+00   5.8951289227322414e+00   4.2532686704434450e+00   1.5847185846899903e+00   9.8120417103839208e-01   9.6684434325273862e+00   1.1458145722408304e+00   1.2160618871684081e+00   1.2407794207493530e+00   1.2490761967360548e+01   7.7227980126514062e+00   3.8409813643439374e+00   2.0500107539699135e+00   1.0058626724858108e+01   8.0944070663553251e+00   8.3800827338570247e+00   9.9445447942873990e+00   4.2574228874187767e+00   8.4164363434621343e+00   7.3813033169573945e+00   1.0601233721014227e+00   2.2892400117519798e+00   8.6568974973058594e+00   1.7060540436388547e+00   1.2293810323451362e+01   8.0739053426534166e+00   7.6951580733623146e+00   3.2296157710390503e+00   9.7168402158034990e+00   1.0207026496745950e+01   1.0617816907442858e+01   2.0398093957044461e+00   8.2673844661226354e+00   8.2814850952757659e+00   5.7518907231024068e+00   5.9955839523309233e+00   6.3356085562381459e+00   4.2456034126895590e+00   9.4016251176488765e+00   8.2225910986565243e+00   5.7829649472494751e+00   4.0228970709085159e+00   1.0905015932220020e-01   5.2335313806686337e+00   4.1940680940675721e+00   7.4232223301347826e+00   7.3191701416919868e+00   7.1508925034370714e+00   7.2874753921875683e+00   7.2431979352256306e+00   4.9981042239537885e+00   7.5823106632122110e+00   1.9972031624501687e+00   1.0657481684131916e+01   8.4683004270915045e+00   7.5302176365548252e+00   6.1793551073590551e+00   5.5193472981026135e+00   6.8119202228897766e+00   6.7776268583165802e+00   6.6523134106711064e+00   1.0545636572699390e+01   9.0124488453903666e+00   5.1151608441155849e+00   1.1045765938062850e+01   1.1101330611238051e+01   7.0558046631383919e-01   8.4954822759130344e-01   1.0494802666451864e+01   4.0610088608797321e+00   4.9721743572732660e+00   3.7250087659554159e+00   4.0770056952509588e+00   5.6359030279855538e-01   4.0199366855848533e+00   1.1750624053415157e+01   1.1549713594882203e+01   1.0515873471732130e+01   1.1421033180062690e+01   4.6653743984079723e+00   4.8695530515059904e+00   7.9302602743258079e+00   2.0232994421198738e+00   6.6200862139144991e+00   1.0799799971485875e+01   2.7002497319954748e+00   4.3628243903771438e+00   7.7321964665309348e+00   4.1098656303333847e+00   1.5987148003352400e+00   4.1097422459667534e+00   2.9055256871200248e+00   7.2016443602664975e+00   7.7522103980324824e+00   2.8378339547838207e+00   5.3431152710654711e-02   1.1487878726868088e+01   8.6827963102935168e-01   2.3672334275631055e+00   1.1045038580503078e+01   1.0169408434609741e+01   7.4720386816869446e+00   1.8491573765880205e+00   1.0741481247071182e+01   8.2746356571755193e+00   8.1580590870113507e+00   8.0777351186956103e+00   9.4836665263942894e+00   1.0401470263213589e+01   1.0617178068187840e+01   4.2216087895559467e+00   1.0098486049471759e+01   9.7275298356488860e-01   4.3424784408280228e+00   2.7722696950397534e+00   8.6478254703796047e+00   3.2212980187378664e+00   5.1073639268191435e+00   1.1296631770060102e+01   8.5959936859182606e-01   1.1137754314355282e+01   1.0237622625302539e+01   1.1614256897060251e+01   3.4046226710229370e+00   1.0418616357237456e+00   1.1441364323757675e+01   1.0949033033333210e+01   1.0923334110110423e+01   6.6985010715030535e-01   1.0203338960287305e+00   8.8668144765530172e+00   1.0249377132190447e+00   6.4474150171255458e+00   9.2784977907618273e+00   6.0968630901592009e+00   9.3990071035470457e+00   5.8268379640803589e+00   1.2190575208381877e+00   1.0662135173890379e+00   1.5006647925153969e+00   3.3567259022707985e+00   3.6767109720952482e+00   4.6029187472555755e+00   1.4130833535288641e+00   1.2835510966983577e+00   9.2997003506060594e-01   2.4885760135868709e+00   1.0413310700392315e+00   1.0621887033840296e+00   4.6534714789561278e+00   1.0032572834815861e+01   1.1108129259794717e+01   9.4364488481646909e+00   6.0526399433768283e+00   9.2624247515473925e+00   1.4835645090432132e+00   1.0231887090744403e+01   1.1139116726306010e+01   2.6580108930325124e+00   1.1326849091342721e+01   9.1648605973669106e+00   9.4381419227269205e+00   9.7593589196435886e+00   1.1279270507509036e+01   1.1445862037149109e+01   1.3542871418830387e+00   8.0140391234237480e+00   1.7130356709260264e+00   1.0971402751236822e+01   7.7529226887555849e+00   7.8231947847043539e+00   5.0686169899309714e+00   4.3344575907115361e+00   5.1008485609640868e+00   9.0042102751950779e+00   5.1621735184502722e+00   2.0813319873300578e+00   7.3151716960732207e+00   1.0368933156759111e+01   6.0379229696110999e+00   1.0758144058981472e+01   1.3213410461560256e+01   6.3743312679304083e+00   9.1846969614241516e+00   8.1577295814174331e+00   1.1053958794806224e+01   1.1948846047600686e+01   5.6785484147312175e+00   2.4369007234681574e+00   2.7774871225971953e+00   1.0356902481505374e+01   1.1909590768542675e+01   5.9581560370586333e+00   5.1329569233492247e+00   3.6559465163895708e+00   1.2265153068118886e+01   3.6558383869578601e+00   9.6791460169974748e+00   1.2192143400681509e+01   8.6312479919397624e+00   6.5058182650719427e+00   7.4229320174718048e+00   8.5373671107792450e+00   6.7358095954718404e+00   8.7729517352778252e+00   5.9734517212534399e+00   4.5571532224352946e+00   1.1286330474063336e+01   5.7102809566162183e+00   5.9908677871394502e+00   2.1439544459314686e+00   5.5099247885832003e+00   1.9532915114995324e+00   5.2260983591931423e+00   1.7294164707308139e+00   1.3577352575257426e+00   1.4453942808938594e+00   1.1885254552718118e+01   7.5322710218630826e+00   7.5898763026274425e+00   1.2324787714997093e+01   7.5619382162826831e-01   7.6276144283637182e-01   7.2166695524178657e+00   8.7228665532198111e+00   5.2038948005828667e+00   1.1180444614771281e+01   9.8619803298235287e-01   1.0914215809605303e+00   1.1306102739581596e+00   9.9737010881830912e-01   1.0201400426568157e+00   5.9130506022243852e+00   7.8306686245266137e+00   4.8742666899371656e+00   5.9875355232502709e+00   1.6924932290305055e+00   1.0320945859954531e+01   7.5835982876307577e+00   5.6262842817976972e+00   8.1628685569529011e+00   6.0669436705771451e+00   6.9022363316760309e+00   6.7468087567640858e+00   8.0562108036673532e+00   7.0952177829826635e+00   7.5005500619531382e+00   8.7549843385363850e+00   1.1194665987854865e+01   7.7650796098300265e+00   1.1095435205090926e+01   1.1667805557984133e+01   7.6162642425597920e+00   8.1542211202495860e+00   7.9373673745949782e+00   7.8470177090213324e+00   8.9956939001537588e+00   1.0853569160937964e+01   1.0837554451144346e+01   1.1230585177776558e+01   1.1426848826419358e+01   1.0013511542245830e+01   9.8325195481859460e+00   3.1788363327454476e+00   9.7093334840504948e+00   4.2273518396530614e+00   4.9883141486764924e+00   3.9173506006952028e+00   3.2899173808055862e+00   9.7327196216373864e+00   9.5004773024531119e-01   1.0688155957678463e+01   8.8026874789326293e-01   9.7697164701248940e-01   6.3546718212929623e+00   2.9585541608514192e+00   8.6796898761776937e+00   1.1407373175362354e+01   8.7446376753201782e-01   1.6688255834027454e+00   1.4724898208343435e+00   1.2141652526102582e+01   1.177908804242