<?xml version="1.0"?>
<VTKFile type="UnstructuredGrid"  version="0.1"  >
<UnstructuredGrid>
<Piece  NumberOfPoints="747" NumberOfCells="1165">
<Points>
<DataArray  type="Float64"  NumberOfComponents="3"  format="ascii">56818.26305072499 -2506106.549119427 0  42243.18265024776 -2506857.639328673 0  29021.82503270428 -2504261.924403077 0  16550.12421826219 -2499855.084024415 0  4655.032296222308 -2495697.422200306 0  -7261.504300492456 -2494323.621393709 0  -18625.22209185599 -2493319.244519799 0  -29276.70419068305 -2491316.102597814 0  -39371.58555411869 -2489334.610554085 0  -48872.2887625367 -2487148.664179707 0  -56975.1983834749 -2482507.606906727 0  -64856.00389190487 -2478322.793323702 0  -73044.09528138349 -2475914.932075506 0  -80956.89453806292 -2474104.027428716 0  -88297.01099239565 -2471721.028140273 0  -95122.34251075231 -2468979.68610345 0  -102033.0976717825 -2467743.453790383 0  -108667.8585333195 -2467170.433637599 0  -114915.9932325953 -2465984.168528114 0  -120845.1804641294 -2464950.543945178 0  -126578.8706923529 -2464806.636550912 0  -131905.6385080613 -2465871.725308503 0  -137064.687279085 -2466513.84235653 0  -141931.6894689468 -2467114.408289441 0  -146558.2518132151 -2467929.3528441 0  -150981.1782706213 -2468467.119438711 0  -155134.7485423184 -2469150.351715567 0  -159045.2990449393 -2470116.702174883 0  -162783.5633652424 -2470995.874606837 0  -166363.671458142 -2471566.36883454 0  -169791.2094945778 -2472089.92531744 0  -173066.7170363216 -2472372.644023074 0  -176180.8272511644 -2472318.589143077 0  -179127.4549433015 -2471957.228690146 0  -181904.9538427488 -2471408.024018189 0  -184523.0000848745 -2470783.818157519 0  -187005.1824092157 -2470191.610932166 0  -189371.4710935979 -2469697.441393066 0  -191637.2486669229 -2469286.956885205 0  -193813.7840475813 -2468932.72635197 0  -195894.9751436561 -2468622.32397195 0  -197860.5122662469 -2468356.257574914 0  -199699.8496405249 -2468131.239090017 0  -201484.3799547247 -2467852.578310028 0  -203235.1081836333 -2467477.120196301 0  -204148.4039899458 -2468231.328417643 0  -204779.4006070163 -2469477.772737175 0  -206226.3182912302 -2469895.043213626 0  -207209.0484690831 -2471050.353437294 0  -206633.7342709575 -2472198.562901576 0  -206689.2205673746 -2473699.963528 0  -207439.3355646643 -2474578.344737141 0  -208686.077261504 -2475226.075148567 0  -208911.224951669 -2476610.681926033 0  -209786.4032029276 -2477610.304923216 0  -210530.8593792382 -2478701.972600761 0  -211347.3117581898 -2479598.487775704 0  -212436.1994711102 -2480321.158208149 0  -211661.3579813032 -2481227.303558039 0  -212339.4592376566 -2482164.498648201 0  -213368.6786835724 -2482893.361192783 0  -213823.9242874084 -2483849.45466838 0  -213959.3389029546 -2484975.339969706 0  -214654.5105929325 -2485857.893728198 0  -214924.9636302208 -2486897.99052352 0  -215387.1968803907 -2487861.977722809 0  -215850.8935184235 -2488606.845677634 0  -216850.3002300822 -2488718.42607849 0  -217786.1788875306 -2488773.814743428 0  -218655.6596527224 -2488960.510713411 0  -219459.2999881662 -2489050.843080118 0  -220215.8572609511 -2489415.86959818 0  -220949.8949656503 -2489578.990779826 0  -221671.8184129359 -2489638.232601265 0  -222360.8395383537 -2489613.467831609 0  -222996.7344008797 -2489634.843068176 0  -223565.7511683207 -2489892.292788903 0  -224056.7930683517 -2490349.213746534 0  -224487.3350267241 -2490843.9928667 0  -224917.776609416 -2491084.259717198 0  -225385.9512610532 -2490939.6600004 0  -225871.0057115029 -2490692.412192973 0  -226347.6588061106 -2490593.974681439 0  -226807.4764604085 -2490599.669749292 0  -227247.6549526961 -2490611.50259405 0  -227666.4916287626 -2490611.945233863 0  -228063.1258911103 -2490614.649470013 0  -228437.2792766626 -2490619.621715965 0  -228789.0148414041 -2490611.440145575 0  -229118.6979285175 -2490579.661792117 0  -229427.7721220893 -2490551.675512337 0  -229718.2857126026 -2490575.632414152 0  -229992.0195062686 -2490686.778079117 0  -230250.5004979436 -2490869.571547285 0  -230495.0197162354 -2491060.637110347 0  -230726.6693575185 -2491208.220350035 0  -230946.3810285181 -2491273.695406383 0  -231155.1727872346 -2491240.482369016 0  -231354.5763814056 -2491151.916669652 0  -231546.3204437924 -2491058.490694704 0  -231732.1881906295 -2491000.058362073 0  -231914.0081666783 -2491009.477644776 0  -232092.2357485933 -2491100.02032591 0  -232263.9691545902 -2491246.068674924 0  -232425.9547039263 -2491419.407037552 0  -232574.5133449228 -2491597.360932464 0  -232704.8009038861 -2491776.874946281 0  -232810.4395700074 -2491960.360275827 0  -232883.2341085825 -2492150.113137818 0  -232912.9947800571 -2492348.349496039 0  -232888.518304726 -2492556.97189473 0  -232809.3398841225 -2492774.886297886 0  -232684.053466982 -2492998.772055723 0  -232523.4050637269 -2493224.618723386 0  -232341.870709994 -2493446.437774289 0  -232149.8049278373 -2493655.556957558 0  -231926.4623607639 -2493840.270994475 0  -231648.985213168 -2493990.591921999 0  -231333.5089516883 -2494114.232577013 0  -231011.2867655237 -2494226.909041754 0  -230716.5565724511 -2494352.83929517 0  -230448.2156366009 -2494566.308324145 0  -230174.691868224 -2494859.203920859 0  -229854.386277046 -2495099.245907737 0  -229456.0482055206 -2495181.232778375 0  -228998.936468587 -2495162.974046715 0  -228517.5500007842 -2495146.384058104 0  -228039.7566338337 -2495203.170887594 0  -227590.3999753736 -2495397.522350929 0  -227184.981929657 -2495766.19833274 0  -226750.2922870113 -2496024.476637892 0  -226213.5702095754 -2495994.660255382 0  -225600.3011662167 -2496052.877603892 0  -224958.9944484101 -2496261.85032066 0  -224327.7512929673 -2496330.814093316 0  -223631.5812784273 -2496280.649748585 0  -222879.2998883054 -2496301.667794817 0  -222254.9783848506 -2496634.523083093 0  -221626.1319051044 -2497065.090720322 0  -220761.0581340182 -2497211.459477382 0  -219968.5459241767 -2497393.939598728 0  -220203.5455070361 -2497899.480461085 0  -220855.9220298611 -2498603.237242675 0  -221131.2246077028 -2499252.862384938 0  -221774.7122121719 -2499660.862433717 0  -222479.7107982228 -2499760.827055608 0  -223033.1183148655 -2499984.859791101 0  -223490.2596104009 -2500462.200395656 0  -224062.3926326139 -2500600.027660071 0  -224541.1956214423 -2500228.786139573 0  -224949.7350095029 -2499888.083019758 0  -225341.0500730075 -2500225.130315016 0  -225757.1423292761 -2500548.432558256 0  -226180.3939651776 -2500786.080344201 0  -226538.177938963 -2501153.984901021 0  -226773.495284157 -2501569.98568693 0  -227039.0304909855 -2501911.932245616 0  -227468.9595916819 -2502129.814972885 0  -227798.6047508129 -2502389.299855465 0  -227884.9238541838 -2502832.388358992 0  -228126.2989976085 -2503276.196050428 0  -227861.5342855403 -2503623.445554566 0  -227372.9304734626 -2503907.390885711 0  -226957.5853764467 -2504175.647480549 0  -226606.2579015691 -2504483.304832757 0  -226161.0056828749 -2504866.856449728 0  -225815.0711509458 -2505316.314749662 0  -225762.8994468044 -2505806.079859471 0  -225997.7594286802 -2506242.915512673 0  -226398.1360973342 -2506619.148825204 0  -226765.9297719086 -2507036.084494513 0  -226845.4953021393 -2507500.960872594 0  -226465.0153921999 -2507962.631785552 0  -225845.8228635425 -2508243.541008709 0  -225251.6156104354 -2508190.021993677 0  -224690.1793840567 -2507897.641923884 0  -224100.3548492745 -2507553.624348171 0  -223414.5727227449 -2507371.21363621 0  -222654.4265297953 -2507276.075847208 0  -221912.0382560525 -2507297.337862614 0  -221266.9189332082 -2507785.266418245 0  -220681.0921292723 -2508353.609471263 0  -220062.6686429494 -2509000.329523423 0  -219236.8308144344 -2509174.655190252 0  -218255.6568359406 -2509399.603364403 0  -218572.4131759723 -2510066.725015923 0  -218861.5230561548 -2510964.91864626 0  -218883.3556157417 -2511846.204517832 0  -219353.8346553762 -2512525.731451487 0  -219963.2685976659 -2513082.42119797 0  -220488.7752431028 -2513679.96717993 0  -220885.2380172826 -2514382.263808274 0  -220990.1132767769 -2515108.665935786 0  -221485.0382534687 -2515632.998891791 0  -222155.0186764667 -2516036.139659067 0  -222390.5819874348 -2516597.550678985 0  -221683.5075769027 -2517109.541916781 0  -221049.1691573458 -2517587.936233334 0  -220341.3916149238 -2518020.204995572 0  -219495.2331410376 -2518369.688367899 0  -219546.7035698217 -2519131.218151119 0  -219685.2088385221 -2520038.091014113 0  -219723.4857113709 -2520890.499102236 0  -219511.8253665795 -2521706.050384868 0  -218768.9497051224 -2522318.273173176 0  -218062.3835558011 -2522951.471679174 0  -217792.1932780886 -2523832.754628343 0  -217721.1829300973 -2524802.156087346 0  -217105.5823664274 -2525632.89503949 0  -216114.3489158486 -2526130.198485046 0  -215762.8823642595 -2526977.667966621 0  -215624.0210213385 -2528047.606007989 0  -215626.57696477 -2529136.754249504 0  -215068.1955778405 -2530004.876344503 0  -214353.5819060722 -2530902.512838067 0  -213458.5631825881 -2531647.245829566 0  -212582.3066935458 -2532532.655828057 0  -211601.1993616105 -2533281.698502241 0  -210230.8203599756 -2533492.702960313 0  -209359.9819486135 -2532733.353591639 0  -207963.7301089823 -2532402.039407601 0  -207461.9620998055 -2533726.636299287 0  -206743.678788939 -2535012.373417936 0  -207794.6479248811 -2535697.474151645 0  -208706.2824926935 -2536681.47128792 0  -208662.8240783605 -2538140.018106792 0  -209359.9957095342 -2539157.350742796 0  -209716.6789857079 -2540401.743356431 0  -208811.4519281083 -2541468.645140812 0  -209077.7529802741 -2542648.334750617 0  -210420.4603172865 -2542562.067677911 0  -211621.9917404423 -2542541.993928391 0  -212754.33587808 -2543120.703356035 0  -212519.6312691136 -2544241.062718421 0  -213084.8685374894 -2545195.129669076 0  -214049.5779914909 -2545637.606566725 0  -215070.0904746166 -2545977.323497721 0  -215634.1102203288 -2546825.493334641 0  -215621.16885731 -2547930.190942091 0  -214942.2606588054 -2548830.648553029 0  -2
[...]
<CellData  Scalars="f_87"> 
<DataArray  type="Float64"  Name="f_87"  format="ascii">6.7944176097673692e-01   6.0870905868313907e-01   2.6147237111602932e-03   1.6503065447383385e+00   2.5933220765401782e-01   4.9566744906890303e+00   3.2696849817766438e+00   5.0245725409283839e+00   1.7021335112246481e+00   4.8087189720097951e+00   9.3980821674275405e-01   4.4240590007939629e-01   4.2307439054304163e-01   1.5727696085374261e+00   4.1589973356284415e-01   8.6066355763381008e-01   5.4607902371827333e-01   6.0161020695402301e-02   4.5253038169280235e-01   2.4841981851212096e+00   4.6112098632357373e-01   4.6983233435249866e-01   4.9925652824209027e-01   1.2321427622894208e+00   4.2700294500675771e-02   2.4651181474863133e+00   4.3086045148567829e+00   2.6551494374431126e+00   4.1707635702337864e+00   3.5924829452466698e+00   1.2223475732974527e+00   3.5332783495105291e+00   4.0350010959236613e+00   2.0430819708025130e+00   1.8420467506918432e+00   3.0772358306887471e+00   4.5685205915651208e+00   4.9032158275316018e+00   1.2729845930255392e+00   2.6875944975012618e+00   4.6114657782778083e+00   3.5129709802352611e+00   2.1232026820048375e+00   3.4457202304398433e+00   3.5964538018719372e+00   3.2954772609989651e+00   4.1160158750600893e+00   3.6702380239089627e+00   1.4705118741506880e+00   4.1018517559199914e+00   4.1728466627981806e+00   4.3031778887067013e-01   3.8532603946615165e+00   4.8195775796216833e-01   4.2247535544831893e-01   2.7498899480050891e+00   2.6251290528865789e+00   4.4801410930543701e+00   3.5789734728732894e+00   4.5853355763629606e+00   3.6336288402727952e+00   1.7797155882842091e+00   3.1113823042444135e+00   3.3801769826725989e+00   1.1455625318426739e+00   1.4544010666768186e+00   4.9802933645914604e-01   1.3116632131828427e+00   1.0990662453287734e+00   4.8389629853530547e-01   1.9524841449596895e+00   4.9118571047101556e-01   4.8185355316003420e-01   3.5793995103804988e+00   3.8374238357857089e+00   3.4204903072073516e+00   2.2877841037937339e+00   2.0785624915385856e+00   9.5994450891485350e-01   2.1423747837161620e+00   2.1117736244258971e+00   2.9981158928990577e+00   3.0307264218951500e+00   3.2492990968322522e+00   4.2944028808904351e+00   1.0133454076586641e+00   2.8630455207790089e+00   1.8690663596058339e+00   4.5003801577317171e-01   3.1224431978189111e+00   3.0502199377398771e+00   5.2004233165702143e-02   4.1613255779879454e-01   7.3789906519601822e-02   4.2235885224304770e-01   1.9221068009796249e+00   4.1393331993758004e-01   3.1594014448673198e+00   3.3706884961711654e+00   3.3140369897404978e+00   4.8654057763257885e-01   5.0424019891391092e-01   6.6681175778105917e-01   9.5243822423792834e-01   3.6856338406080935e+00   2.1651372071934833e+00   2.2222419478835218e+00   2.2511233580637238e+00   2.3980973440482103e+00   4.4457754174519559e-01   2.1036169681741059e+00   1.0166859309398206e+00   4.1881029239669054e+00   4.2127696860995902e+00   3.2016460666352731e+00   4.9161914195050484e-02   2.3058474614798978e+00   2.3449738278324421e+00   9.1568072229114295e-01   2.0158918332450698e-01   6.9750487023659741e-02   1.6060673029790518e-01   1.1986999985572560e+00   3.2163840880765613e+00   4.9251025316782266e+00   4.2151029530769613e+00   3.2146141375407211e+00   4.9651106491106640e+00   2.8182167192935084e+00   3.3496553219430254e+00   2.6058851508008818e+00   2.5663880877976917e+00   2.3807462282302403e+00   3.6429033376495243e+00   3.1376792301702596e+00   5.2514297478615946e-01   5.3169987588608780e-01   3.2327746607148216e+00   1.0874975562785842e+00   2.9515307882055097e+00   5.3250796439241821e+00   5.0338698218179516e+00   6.5124239383798344e-01   4.2139282083347158e+00   3.0036705876997210e+00   1.6199896664167812e+00   8.5262881059837159e-01   2.6487806581930622e+00   5.1931902338900455e+00   6.4107969907783269e-01   3.3092271599070187e+00   3.5040376905922956e+00   3.8937327363754708e+00   7.8268293402088318e-01   3.5645141336463673e+00   3.3980962443077924e+00   1.1677923302931005e-02   8.3170400817150369e-01   5.8873689014665087e-03   2.1533909629743575e+00   2.0893095077896260e+00   4.0148180017086101e+00   2.1953137898271877e+00   3.9659092602485906e+00   3.5594015025535950e+00   4.7525903997038255e-01   4.2522101786462247e+00   1.8885333695752724e+00   2.6946940603979019e+00   3.9172971636930405e+00   4.7817233489252153e-01   4.6377612467908041e-01   1.9824017345923655e+00   4.1053321601020123e+00   4.1525298152359760e+00   4.4301459260135880e+00   2.7928399278089495e+00   1.3428676411216383e+00   4.2706237636449558e+00   4.1963335443114609e+00   4.4953105767353847e+00   2.9428653432533496e+00   2.4032713759715127e+00   1.4170940449988745e+00   4.3816921285521770e+00   4.3843167529861669e+00   3.7112048868204690e+00   1.8695869764402495e+00   4.5045452009059819e+00   3.7264264703443195e+00   1.5839331904457583e+00   4.3810269312461223e+00   1.4810712711834912e+00   2.0147585232132794e+00   3.9710516535224678e+00   1.6089873529799001e+00   4.8501005042815581e+00   1.8713645921010933e+00   1.9012850395441232e+00   4.9084049601545328e+00   9.3460815055248836e-01   1.6407657671976417e+00   1.2534989583502019e+00   1.4500364310895573e+00   1.5893729571242137e+00   2.2929174150978322e+00   3.4863651557494522e+00   3.8101504636756340e+00   1.4861863864635816e+00   3.2790161219886698e+00   3.3283307618597693e+00   1.4539323702915368e+00   1.3392735774997129e+00   8.5928048952936464e-01   1.3939117917247810e+00   3.7707902103004920e+00   4.1835514488911523e+00   2.4590651194252109e+00   2.3320158923273495e+00   3.2776982112068480e+00   1.8562743997469369e+00   3.6711329160576902e+00   2.1794503611849421e+00   4.9939041297653108e-01   3.4083066982542447e+00   1.0535160528141807e+00   4.5325545137984378e+00   3.5626141841303753e+00   4.4779528075532031e+00   8.0399283097927843e-01   1.7602896276634583e-01   7.4195652645161692e-01   4.4392754370172307e+00   3.5786445067646486e+00   3.5375199656925127e+00   4.1771709894241562e+00   2.6419587476682578e+00   3.9605779361336912e+00   1.6418992016895895e+00   4.1187303013519632e+00   1.7571807921979605e+00   1.5869343923637504e+00   2.7755833058581310e+00   2.3854820999502835e-01   5.3068345821976137e-01   3.8933743130759479e+00   1.3880319119020630e+00   3.9941774756894927e-01   4.7661485383158260e+00   4.2511659599630534e+00   3.8097945139822658e+00   2.7517907803932111e+00   4.4486845733406710e+00   4.2989848454621349e+00   3.2751184321280868e-01   4.1175034134680235e+00   2.6774864273854124e+00   2.3782306508932849e+00   2.1569432531851005e+00   1.9952695943016081e+00   1.9747752329650845e+00   2.8514346333865581e+00   1.2934048730630299e+00   1.4171207070849123e+00   1.0000899442989273e+00   2.8429897488513234e+00   2.1010204242902280e+00   2.6809309352560620e+00   3.1183479986867741e+00   3.2936134308700926e+00   3.5805323262287998e+00   3.9921306486714978e+00   3.8892454334272784e+00   3.7392408997886211e+00   3.9567175560476779e+00   2.6866096014988909e+00   3.9608801387324397e+00   9.3147965933263810e-01   3.0755403215116535e+00   3.8947706350506159e+00   4.7228358474105328e+00   9.5181297605897885e-01   4.5967438346658751e-01   4.3217046603931548e+00   3.4799875568267145e+00   3.8595753223344604e+00   4.6554368423716754e+00   3.6628365523508601e+00   1.3608903863622954e+00   4.5993360372279266e+00   3.2506823183663824e+00   2.6584109586995446e+00   2.8915444624641456e-01   4.6361300841748569e+00   4.4329340526922528e-01   3.6740429703604001e+00   3.6257315360662510e+00   3.9373761265527580e+00   3.5060622420013772e+00   3.3097716090075846e-01   7.9962385010100878e-01   8.2820388319901761e-01   4.1170135279919391e+00   2.4256674015561641e+00   1.8951062612767322e+00   3.3023493569653448e+00   2.6465163536429057e+00   5.9535570326684850e-01   5.9007866135376330e-01   5.7676899135055659e-01   8.5520485149963954e-01   3.3898306135585941e+00   3.8767826603098682e-01   2.8158216607938313e+00   4.3204460498250423e+00   1.9440750903703450e+00   4.7559613445344234e-01   4.6545910041872429e-01   1.6541856221275735e+00   1.6865946666903324e+00   1.8459707268764602e+00   1.9494377363186592e+00   4.6827458607282602e-01   3.2322414264652535e+00   4.2459843055444768e-01   1.4188188479629589e+00   1.9941981546584020e+00   2.6341768795613212e+00   1.4357023373906226e+00   3.0384367451857859e+00   2.7836111224251763e+00   2.4298549886434353e+00   2.9683209099139667e+00   2.1354447250460344e+00   1.3996615543083257e+00   2.2883235858620097e+00   4.8025409944257369e-01   1.5354914553384360e+00   3.0281205967023999e+00   3.3298583668359583e+00   7.2752630501644833e-01   2.9530951593896657e+00   4.8594850623737895e-01   3.9414369338256607e+00   4.9727287768460249e-01   1.9064759643785250e+00   7.8550989995706241e-02   5.8473819071896582e-01   1.0010211831143696e+00   4.8822567246951769e-02   8.5348315726350776e-01   5.1646195008404518e+00   6.5234757740104654e-01   2.6058029472945483e+00   6.3397548688355609e-01   8.7331362208777047e-02   4.8172220466499066e-01   4.5721863290062403e+00   2.1260397806263414e+00   2.2463484524431965e-02   2.2141914380345336e+00   1.8514115947370173e+00   1.9526163952069213e+00   2.1200206080413264e+00   2.1065765547704909e+00   4.5684194605373367e+00   4.3993598490397519e+00   4.4575084677832388e-01   1.3143133707684006e-02   6.3476682214471225e-01   3.8258264536637308e+00   2.3017442779851582e+00   1.7874914021004300e+00   4.2965753482209218e-01   3.0849507294470295e+00   6.7550829821062719e-01   3.8045245358481332e+00   2.5839000022791940e+00   1.9468175279242481e+00   4.1630436081369790e+00   1.8843854954097967e+00   3.2888219202138336e+00   3.2298821547923380e+00   2.0268436635241027e+00   4.1540340196374279e+00   4.0825382560594248e+00   1.3301961831257909e+00   3.9851959026513439e+00   2.0906161862900379e+00   4.6082767591681950e+00   3.3069121934724013e+00   1.9460479173853305e+00   4.4379528543653564e+00   4.6474290585983749e+00   3.4488557549127408e+00   2.4863397848663999e+00   5.6859069820678498e-01   2.5828144822707597e+00   5.0567793697231593e+00   7.4610817901369020e-01   6.8165504403039956e-01   3.5961003713418682e+00   1.4132136398632236e+00   1.9529682588495136e+00   1.7850002045466316e+00   4.0436335493285656e+00   4.0097620999507235e+00   1.4094984347339987e+00   1.3783831651242888e+00   3.8489554293793766e+00   5.0987208055209488e-01   3.7116919595421898e+00   4.3888022511800626e+00   5.2527566281746085e-01   5.5417745217268699e-01   5.0536362642481869e-01   4.2338137655417158e+00   4.5821388478046279e+00   3.9147413709793502e+00   4.8625834887165329e+00   1.2674607433538432e+00   4.4794652298817264e+00   2.9902964438148842e+00   2.7492641916875797e+00   4.1770829160548244e+00   4.1083870683277359e+00   3.3995094252731493e+00   3.4347841271385189e+00   4.9196909915076059e+00   4.6668140720015412e+00   4.4423505791438824e+00   3.2450504608289603e+00   4.1894748563974105e-01   2.8395154199470758e+00   4.0867134675189476e+00   2.1154505041795169e+00   2.2433156930615707e+00   2.0338857195823072e+00   3.7955466341304867e+00   3.8804667570400708e+00   1.1634505761251462e-01   1.1934555198068166e+00   1.4107900119593251e+00   1.1321938195422228e+00   1.0697234128571655e+00   1.0663753130487368e+00   4.4996707919030587e+00   3.1337875569032647e+00   2.9705504178034916e+00   3.1839531297555199e+00   3.0336132693827125e+00   2.9383786673877226e+00   4.6654846654522188e+00   4.5687434473389139e+00   4.5088310518754406e+00   1.4888958779987829e+00   4.2149938804764959e+00   1.7311982692126802e+00   1.8250494499612988e+00   5.2281182547682536e-01   6.3577563896634270e-01   4.6292558214989707e+00   3.2805330258996319e+00   4.9180537409256708e-01   4.9446890518818287e-01   3.6085523206427714e+00   3.6653288959612533e+00   3.4767814711142817e+00   2.6303120297109261e+00   3.3704661141268506e+00   2.3085900243319966e+00   4.6463441489993125e+00   4.3395055526128354e+00   4.2208856834134378e+00   3.0791023186703490e+00   5.5660779623387202e-01   5.8222286011462698e-01   4.4397830479628086e-01   4.3666027151403497e-01   8.6414937281986526e-01   4.4401943332346807e+00   4.3448442332497237e+00   3.3782268115523859e+00   3.4357882287867549e+00   4.1771040125991314e+00   2.8325172128925376e+00   4.5306010186069905e+00   4.4288285244387132e-01   4.0063664623924744e+00   2.0067099900778635e+00   4.0113194831962504e+00   3.9395620176107058e+00   3.8734504407737833e+00   4.0464075499903212e+00   1.8918104903821766e+00   4.5387655269019006e-01   4.6912411257274450e-01   4.1952789308336969e-01   1.7485225481748368e+00   2.9662233280442898e+00   4.2247828930903902e-01   4.0836856953349154e-01   3.1240637295913536e+00   3.5184295808491601e+00   3.4533380633267186e+00   2.8546132262750765e+00   3.8314264606626955e+00   3.7266731914931763e+00   3.6889646349043286e+00   3.6258775328820914e+00   5.8823274262842473e-01   5.5324140539778976e-01   2.6402526559733182e+00   2.2944145674345835e+00   2.5825801789071745e+00   2.4221053975095370e+00   1.7876055033486054e+00   7.4335341960926027e-01   5.0424612436205574e-01   4.0262495615601805e+00   5.5096388266422391e-01   5.7873676311802846e-01   5.8914670131528757e-01   5.0642182516655900e+00   3.0181578413043662e+00   1.6147480185912439e+00   9.0496792236959100e-01   3.9773723413200521e+00   3.1377356438678574e+00   3.2502809462607738e+00   4.1225164401411467e+00   1.7734080805841657e+00   3.4217048930954728e+00   3.0145021668641099e+00   5.1455574977693452e-01   1.0113833060280939e+00   3.5156449567785861e+00   7.7915518677349704e-01   4.9978864938379619e+00   3.1269932140707457e+00   3.0064033488766913e+00   1.3886652346944044e+00   3.8198133026474466e+00   4.0419779143746446e+00   4.4356937229707825e+00   9.1333689188163514e-01   3.3806921577746394e+00   3.3942814795855760e+00   2.2623987514543726e+00   2.3428410728869076e+00   2.4611346843275665e+00   1.7732080472134797e+00   3.6888611771625364e+00   3.1913627235218991e+00   2.2780259037283788e+00   1.6863242698886727e+00   3.0956348144463235e-02   2.1659048004804262e+00   1.7548989514868998e+00   2.9068438250701325e+00   2.9819111266332863e+00   2.9148099703503125e+00   2.9669135587556612e+00   2.8438567603766334e+00   2.1003073809300119e+00   2.9679400768312241e+00   8.9613145920980630e-01   4.3055651879009780e+00   3.4480652913803267e+00   2.9505711209611278e+00   2.5392089817431529e+00   2.2779015737760235e+00   2.7862868565686183e+00   2.7754133508878303e+00   2.7250247904297726e+00   4.1825328499952681e+00   3.6561654174719243e+00   2.0429254021004408e+00   4.4600942491833671e+00   4.4287400156858912e+00   2.2016280777007241e-01   3.0143247788948707e-01   4.1641893795293390e+00   1.6761989939732560e+00   2.0265625672978755e+00   1.5844215243051381e+00   1.7072865122481333e+00   1.5581974502300347e-01   1.6927112791526868e+00   4.8132123291449602e+00   4.7090418914711147e+00   4.2347308994267268e+00   4.6569753046634723e+00   1.9031128483946067e+00   1.9696003207129973e+00   3.2647022684406224e+00   8.6019970576559457e-01   2.6446531607452717e+00   4.3647405806102366e+00   1.1519560575702363e+00   1.8207714520081786e+00   3.0881937018842613e+00   1.7237917074425724e+00   6.8869250591271203e-01   1.7234949001720230e+00   1.2493439635770993e+00   2.7960614751033028e+00   3.0047783981001661e+00   1.2074073091082806e+00   1.9851311482237746e-02   4.6704473235129642e+00   2.9621363576584153e-01   1.0299887701248005e+00   4.4145480560855734e+00   3.9936908520567562e+00   2.8965723208713734e+00   8.2483858091255779e-01   4.2587331425937469e+00   3.3936572452835447e+00   3.3467373546390249e+00   3.2849806219482316e+00   3.8744434507515431e+00   4.2773768733071575e+00   4.3490880221072752e+00   1.7606403707484726e+00   4.0379492394645196e+00   3.6199877292382182e-01   1.7991191843779974e+00   1.1903152193693245e+00   3.5421932250835471e+00   1.3674805877610579e+00   2.1116207906941495e+00   4.5606555023443214e+00   3.0857511242162716e-01   4.5181148386475769e+00   4.1681840112693758e+00   4.7254683812328544e+00   1.4389214902002472e+00   5.0530183400567841e-01   4.6522491127719379e+00   4.4247486542262173e+00   4.4580377923646157e+00   1.9248941183537066e-01   4.9768733122803716e-01   3.4790215496908834e+00   4.9900908651886011e-01   2.5215586987280196e+00   3.6643132716095064e+00   2.3952947697743174e+00   3.7597611553215735e+00   2.3023282129751803e+00   5.0932218256208672e-01   5.1533022073716694e-01   6.5673622099448359e-01   1.4347281052139522e+00   1.5525494544706753e+00   1.9180893414768783e+00   6.1304045875095081e-01   6.0328087970917998e-01   4.6282511855967767e-01   1.0833935475682848e+00   5.0730470845364151e-01   5.1564856830470573e-01   1.9370448878649651e+00   4.1215693808953366e+00   4.4737137692460927e+00   3.7154781821360925e+00   2.5156644643615778e+00   3.6472405917729902e+00   6.4226544299504651e-01   4.0671354000110833e+00   4.5081821250584291e+00   1.1440121838118238e+00   4.5705306241348893e+00   3.5755864829940718e+00   3.7024203104372506e+00   3.8501943796358971e+00   4.5528983856106295e+00   4.6849748911642877e+00   5.6823199176939510e-01   3.1067632648228702e+00   7.1209667553381362e-01   4.4150941578153278e+00   3.1845451973494385e+00   3.2051922663477086e+00   2.0353211998979841e+00   1.8129130359194490e+00   2.1135343815581455e+00   3.6200917860261179e+00   2.0594440220050672e+00   9.4116424569538215e-01   2.8595906834523568e+00   4.2307545786792220e+00   2.4900584534487549e+00   4.3075340655195928e+00   5.3295126143714420e+00   2.6214950539090207e+00   3.7248164112004192e+00   3.3191961430598051e+00   4.5094556685155416e+00   4.9093862590117929e+00   2.2488371323315843e+00   1.0755402682424757e+00   1.2174449088271666e+00   4.2215272840920255e+00   4.8997799929028005e+00   2.3521034658407305e+00   2.1481573251256996e+00   1.5458149058271196e+00   5.0562628780399841e+00   1.5479179285240603e+00   3.8392769656950780e+00   5.0181469208528018e+00   3.4696694683160301e+00   2.6565621396967285e+00   3.0039835951212726e+00   3.3197005627223817e+00   2.7882269089565268e+00   3.4187083689620081e+00   2.3345394898868781e+00   1.8950202076888196e+00   4.5878953810144436e+00   2.2463132907470094e+00   2.4883367942598644e+00   9.5160362256257491e-01   2.2966525985100352e+00   8.5268378244640364e-01   2.0814748343139802e+00   7.6345252139554920e-01   6.3577518368592922e-01   6.7102457153711326e-01   4.8997483731735416e+00   3.1311132600577412e+00   3.1478378177062303e+00   5.0119588815532605e+00   3.9858007081796237e-01   4.0117027955276363e-01   3.0083504772297993e+00   3.4597141320219889e+00   2.1602818977372000e+00   4.5237788959378911e+00   4.8568950157483576e-01   5.2707693188444793e-01   5.4332052648647255e-01   4.9071283004540273e-01   5.0023422934382566e-01   2.4393514167374666e+00   3.0382373937896330e+00   1.9664604920272051e+00   2.3636595047650255e+00   7.6358023189151314e-01   4.1705765254338241e+00   2.9351075089730569e+00   2.2294137827203411e+00   3.1745432025685347e+00   2.4971716483797479e+00   2.7141884491152535e+00   2.8102919229803605e+00   3.1285312800667251e+00   2.7836110413606692e+00   2.8986878421410025e+00   3.5669789146038831e+00   4.5673996512000432e+00   3.0052305664309182e+00   4.5203030259323764e+00   4.7588263859451239e+00   2.9441057354683657e+00   3.1635548113359029e+00   3.0753769216843141e+00   3.0393001796535142e+00   3.6836841671077201e+00   4.3620866289456668e+00   4.3467070192072033e+00   4.5369668374387340e+00   4.6074919038646129e+00   4.0838621182081241e+00   3.9107503234185446e+00   1.3447126779429297e+00   3.8276174064971826e+00   1.7892492425099960e+00   2.1318447363973911e+00   1.6514078273170651e+00   1.4159349806872035e+00   3.8289252790036792e+00   4.7078063109731300e-01   4.4260128935705882e+00   4.4899672496971921e-01   4.8135886395353483e-01   2.4673899434840920e+00   1.2568115700758109e+00   3.5695291166228058e+00   4.6134469876025701e+00   4.3970808553058610e-01   7.5699563230470390e-01   6.7899937049194004e-01   4.9838775328402907e+00   4.88248785215813