<?xml version="1.0"?>
<VTKFile type="UnstructuredGrid"  version="0.1"  >
<UnstructuredGrid>
<Piece  NumberOfPoints="747" NumberOfCells="1165">
<Points>
<DataArray  type="Float64"  NumberOfComponents="3"  format="ascii">56818.26305072499 -2506106.549119427 0  42243.18265024776 -2506857.639328673 0  29021.82503270428 -2504261.924403077 0  16550.12421826219 -2499855.084024415 0  4655.032296222308 -2495697.422200306 0  -7261.504300492456 -2494323.621393709 0  -18625.22209185599 -2493319.244519799 0  -29276.70419068305 -2491316.102597814 0  -39371.58555411869 -2489334.610554085 0  -48872.2887625367 -2487148.664179707 0  -56975.1983834749 -2482507.606906727 0  -64856.00389190487 -2478322.793323702 0  -73044.09528138349 -2475914.932075506 0  -80956.89453806292 -2474104.027428716 0  -88297.01099239565 -2471721.028140273 0  -95122.34251075231 -2468979.68610345 0  -102033.0976717825 -2467743.453790383 0  -108667.8585333195 -2467170.433637599 0  -114915.9932325953 -2465984.168528114 0  -120845.1804641294 -2464950.543945178 0  -126578.8706923529 -2464806.636550912 0  -131905.6385080613 -2465871.725308503 0  -137064.687279085 -2466513.84235653 0  -141931.6894689468 -2467114.408289441 0  -146558.2518132151 -2467929.3528441 0  -150981.1782706213 -2468467.119438711 0  -155134.7485423184 -2469150.351715567 0  -159045.2990449393 -2470116.702174883 0  -162783.5633652424 -2470995.874606837 0  -166363.671458142 -2471566.36883454 0  -169791.2094945778 -2472089.92531744 0  -173066.7170363216 -2472372.644023074 0  -176180.8272511644 -2472318.589143077 0  -179127.4549433015 -2471957.228690146 0  -181904.9538427488 -2471408.024018189 0  -184523.0000848745 -2470783.818157519 0  -187005.1824092157 -2470191.610932166 0  -189371.4710935979 -2469697.441393066 0  -191637.2486669229 -2469286.956885205 0  -193813.7840475813 -2468932.72635197 0  -195894.9751436561 -2468622.32397195 0  -197860.5122662469 -2468356.257574914 0  -199699.8496405249 -2468131.239090017 0  -201484.3799547247 -2467852.578310028 0  -203235.1081836333 -2467477.120196301 0  -204148.4039899458 -2468231.328417643 0  -204779.4006070163 -2469477.772737175 0  -206226.3182912302 -2469895.043213626 0  -207209.0484690831 -2471050.353437294 0  -206633.7342709575 -2472198.562901576 0  -206689.2205673746 -2473699.963528 0  -207439.3355646643 -2474578.344737141 0  -208686.077261504 -2475226.075148567 0  -208911.224951669 -2476610.681926033 0  -209786.4032029276 -2477610.304923216 0  -210530.8593792382 -2478701.972600761 0  -211347.3117581898 -2479598.487775704 0  -212436.1994711102 -2480321.158208149 0  -211661.3579813032 -2481227.303558039 0  -212339.4592376566 -2482164.498648201 0  -213368.6786835724 -2482893.361192783 0  -213823.9242874084 -2483849.45466838 0  -213959.3389029546 -2484975.339969706 0  -214654.5105929325 -2485857.893728198 0  -214924.9636302208 -2486897.99052352 0  -215387.1968803907 -2487861.977722809 0  -215850.8935184235 -2488606.845677634 0  -216850.3002300822 -2488718.42607849 0  -217786.1788875306 -2488773.814743428 0  -218655.6596527224 -2488960.510713411 0  -219459.2999881662 -2489050.843080118 0  -220215.8572609511 -2489415.86959818 0  -220949.8949656503 -2489578.990779826 0  -221671.8184129359 -2489638.232601265 0  -222360.8395383537 -2489613.467831609 0  -222996.7344008797 -2489634.843068176 0  -223565.7511683207 -2489892.292788903 0  -224056.7930683517 -2490349.213746534 0  -224487.3350267241 -2490843.9928667 0  -224917.776609416 -2491084.259717198 0  -225385.9512610532 -2490939.6600004 0  -225871.0057115029 -2490692.412192973 0  -226347.6588061106 -2490593.974681439 0  -226807.4764604085 -2490599.669749292 0  -227247.6549526961 -2490611.50259405 0  -227666.4916287626 -2490611.945233863 0  -228063.1258911103 -2490614.649470013 0  -228437.2792766626 -2490619.621715965 0  -228789.0148414041 -2490611.440145575 0  -229118.6979285175 -2490579.661792117 0  -229427.7721220893 -2490551.675512337 0  -229718.2857126026 -2490575.632414152 0  -229992.0195062686 -2490686.778079117 0  -230250.5004979436 -2490869.571547285 0  -230495.0197162354 -2491060.637110347 0  -230726.6693575185 -2491208.220350035 0  -230946.3810285181 -2491273.695406383 0  -231155.1727872346 -2491240.482369016 0  -231354.5763814056 -2491151.916669652 0  -231546.3204437924 -2491058.490694704 0  -231732.1881906295 -2491000.058362073 0  -231914.0081666783 -2491009.477644776 0  -232092.2357485933 -2491100.02032591 0  -232263.9691545902 -2491246.068674924 0  -232425.9547039263 -2491419.407037552 0  -232574.5133449228 -2491597.360932464 0  -232704.8009038861 -2491776.874946281 0  -232810.4395700074 -2491960.360275827 0  -232883.2341085825 -2492150.113137818 0  -232912.9947800571 -2492348.349496039 0  -232888.518304726 -2492556.97189473 0  -232809.3398841225 -2492774.886297886 0  -232684.053466982 -2492998.772055723 0  -232523.4050637269 -2493224.618723386 0  -232341.870709994 -2493446.437774289 0  -232149.8049278373 -2493655.556957558 0  -231926.4623607639 -2493840.270994475 0  -231648.985213168 -2493990.591921999 0  -231333.5089516883 -2494114.232577013 0  -231011.2867655237 -2494226.909041754 0  -230716.5565724511 -2494352.83929517 0  -230448.2156366009 -2494566.308324145 0  -230174.691868224 -2494859.203920859 0  -229854.386277046 -2495099.245907737 0  -229456.0482055206 -2495181.232778375 0  -228998.936468587 -2495162.974046715 0  -228517.5500007842 -2495146.384058104 0  -228039.7566338337 -2495203.170887594 0  -227590.3999753736 -2495397.522350929 0  -227184.981929657 -2495766.19833274 0  -226750.2922870113 -2496024.476637892 0  -226213.5702095754 -2495994.660255382 0  -225600.3011662167 -2496052.877603892 0  -224958.9944484101 -2496261.85032066 0  -224327.7512929673 -2496330.814093316 0  -223631.5812784273 -2496280.649748585 0  -222879.2998883054 -2496301.667794817 0  -222254.9783848506 -2496634.523083093 0  -221626.1319051044 -2497065.090720322 0  -220761.0581340182 -2497211.459477382 0  -219968.5459241767 -2497393.939598728 0  -220203.5455070361 -2497899.480461085 0  -220855.9220298611 -2498603.237242675 0  -221131.2246077028 -2499252.862384938 0  -221774.7122121719 -2499660.862433717 0  -222479.7107982228 -2499760.827055608 0  -223033.1183148655 -2499984.859791101 0  -223490.2596104009 -2500462.200395656 0  -224062.3926326139 -2500600.027660071 0  -224541.1956214423 -2500228.786139573 0  -224949.7350095029 -2499888.083019758 0  -225341.0500730075 -2500225.130315016 0  -225757.1423292761 -2500548.432558256 0  -226180.3939651776 -2500786.080344201 0  -226538.177938963 -2501153.984901021 0  -226773.495284157 -2501569.98568693 0  -227039.0304909855 -2501911.932245616 0  -227468.9595916819 -2502129.814972885 0  -227798.6047508129 -2502389.299855465 0  -227884.9238541838 -2502832.388358992 0  -228126.2989976085 -2503276.196050428 0  -227861.5342855403 -2503623.445554566 0  -227372.9304734626 -2503907.390885711 0  -226957.5853764467 -2504175.647480549 0  -226606.2579015691 -2504483.304832757 0  -226161.0056828749 -2504866.856449728 0  -225815.0711509458 -2505316.314749662 0  -225762.8994468044 -2505806.079859471 0  -225997.7594286802 -2506242.915512673 0  -226398.1360973342 -2506619.148825204 0  -226765.9297719086 -2507036.084494513 0  -226845.4953021393 -2507500.960872594 0  -226465.0153921999 -2507962.631785552 0  -225845.8228635425 -2508243.541008709 0  -225251.6156104354 -2508190.021993677 0  -224690.1793840567 -2507897.641923884 0  -224100.3548492745 -2507553.624348171 0  -223414.5727227449 -2507371.21363621 0  -222654.4265297953 -2507276.075847208 0  -221912.0382560525 -2507297.337862614 0  -221266.9189332082 -2507785.266418245 0  -220681.0921292723 -2508353.609471263 0  -220062.6686429494 -2509000.329523423 0  -219236.8308144344 -2509174.655190252 0  -218255.6568359406 -2509399.603364403 0  -218572.4131759723 -2510066.725015923 0  -218861.5230561548 -2510964.91864626 0  -218883.3556157417 -2511846.204517832 0  -219353.8346553762 -2512525.731451487 0  -219963.2685976659 -2513082.42119797 0  -220488.7752431028 -2513679.96717993 0  -220885.2380172826 -2514382.263808274 0  -220990.1132767769 -2515108.665935786 0  -221485.0382534687 -2515632.998891791 0  -222155.0186764667 -2516036.139659067 0  -222390.5819874348 -2516597.550678985 0  -221683.5075769027 -2517109.541916781 0  -221049.1691573458 -2517587.936233334 0  -220341.3916149238 -2518020.204995572 0  -219495.2331410376 -2518369.688367899 0  -219546.7035698217 -2519131.218151119 0  -219685.2088385221 -2520038.091014113 0  -219723.4857113709 -2520890.499102236 0  -219511.8253665795 -2521706.050384868 0  -218768.9497051224 -2522318.273173176 0  -218062.3835558011 -2522951.471679174 0  -217792.1932780886 -2523832.754628343 0  -217721.1829300973 -2524802.156087346 0  -217105.5823664274 -2525632.89503949 0  -216114.3489158486 -2526130.198485046 0  -215762.8823642595 -2526977.667966621 0  -215624.0210213385 -2528047.606007989 0  -215626.57696477 -2529136.754249504 0  -215068.1955778405 -2530004.876344503 0  -214353.5819060722 -2530902.512838067 0  -213458.5631825881 -2531647.245829566 0  -212582.3066935458 -2532532.655828057 0  -211601.1993616105 -2533281.698502241 0  -210230.8203599756 -2533492.702960313 0  -209359.9819486135 -2532733.353591639 0  -207963.7301089823 -2532402.039407601 0  -207461.9620998055 -2533726.636299287 0  -206743.678788939 -2535012.373417936 0  -207794.6479248811 -2535697.474151645 0  -208706.2824926935 -2536681.47128792 0  -208662.8240783605 -2538140.018106792 0  -209359.9957095342 -2539157.350742796 0  -209716.6789857079 -2540401.743356431 0  -208811.4519281083 -2541468.645140812 0  -209077.7529802741 -2542648.334750617 0  -210420.4603172865 -2542562.067677911 0  -211621.9917404423 -2542541.993928391 0  -212754.33587808 -2543120.703356035 0  -212519.6312691136 -2544241.062718421 0  -213084.8685374894 -2545195.129669076 0  -214049.5779914909 -2545637.606566725 0  -215070.0904746166 -2545977.323497721 0  -215634.1102203288 -2546825.493334641 0  -215621.16885731 -2547930.190942091 0  -214942.2606588054 -2548830.648553029 0  -2
[...]
<CellData  Scalars="f_147"> 
<DataArray  type="Float64"  Name="f_147"  format="ascii">1.9480959642736836e-01   1.8896252898868501e-01   0.0000000000000000e+00   3.7583251352865266e-01   3.2029866103812853e-04   7.4359930623911030e-01   9.5721847196960003e-02   7.6493073593415106e-01   3.8408293425501189e-01   7.2582120537533146e-01   2.5877838414753256e-04   1.7849498599168817e-01   1.7542914757578665e-01   3.0136200787086835e-03   1.7504040988774455e-01   2.9809749067333675e-04   1.0305548960344454e-03   4.1148647504038003e-07   1.7642984753138827e-01   2.4233488410214797e-02   1.7677658184957851e-01   9.3699049146308405e-04   1.8027853813802047e-01   2.3903884144320539e-01   0.0000000000000000e+00   3.6979843021859693e-01   6.7354231996888214e-01   3.7470709070614722e-01   6.0116524280823525e-01   3.7334086833350805e-01   7.2102581295495447e-04   1.7006829126546977e-01   7.2284008706807590e-01   3.0084043718701503e-01   2.8504166643581791e-01   3.3388673297588978e-01   7.4194056810940978e-01   7.7552663096067809e-01   3.0666477621355998e-01   5.0703825563282046e-01   7.8441863409041224e-01   5.5832242925258702e-01   4.3356814910843389e-01   5.7294750018370644e-01   1.7116892004670892e-01   5.3657484709332037e-01   7.6378061900820116e-01   1.8116953600740501e-01   2.8546419451113386e-01   3.1152119496938901e-01   3.3154445753137857e-01   1.7471309316965652e-01   2.3154695139319920e-01   1.7941131307645369e-01   1.7384034161153961e-01   5.4852379316656141e-01   3.1570900863128443e-02   7.0928030298221056e-01   4.3145723738629260e-01   6.6944465571810619e-01   4.9964392149410486e-01   3.1620129245910544e-01   6.1647007465272430e-01   1.4177358346525232e-01   1.6570379923888738e-04   2.6207587886997818e-01   1.7971536872438076e-01   2.5093417816855651e-01   1.9302919062622631e-04   1.7820137058129626e-01   4.3173896691255093e-01   1.7858276279836949e-01   1.7778297428734299e-01   1.6099995874359785e-01   2.3447347463877385e-01   1.4477287618525589e-01   3.7566232314299192e-01   3.5262278439436856e-01   2.1608558697910063e-01   8.9133395352128508e-03   8.3176663657121598e-03   3.8891116696496308e-01   3.8833737414763658e-01   8.6346262537208729e-02   3.7734529029209418e-01   2.2004946729232072e-01   3.7034279775868351e-01   2.9569734695403388e-01   1.7719485727020245e-01   8.1887443864473469e-02   7.2997295789998612e-02   2.1004660298685238e-06   1.7483676740342030e-01   1.0310814946536070e-05   1.7501973399088372e-01   3.0075005868768373e-01   1.7427304537887117e-01   9.4385736208845841e-02   1.0797364469356004e-01   5.4127317404908726e-01   1.7924556446720241e-01   1.8401358332970574e-01   2.0266523682550053e-01   4.1892490676785908e-04   2.0389256830040831e-01   1.3019724867840549e-02   4.2939761582451930e-01   1.6062659806914747e-02   2.3922217092361246e-02   1.7701854217843152e-01   1.2072135376957966e-02   3.4118594537442033e-04   3.8037785149390102e-01   3.7796886547969721e-01   5.3772413483100223e-01   2.0572159699591552e-09   1.6280685726464711e-02   1.8324179340733895e-02   2.1682304639882671e-01   3.4281110733214474e-04   8.3012871039116454e-07   2.1575406028156321e-04   1.2451936429613353e-04   4.0127826098405794e-01   7.4789959558000152e-01   3.9810744933941344e-01   4.1601841963912239e-01   7.6082609890827191e-01   4.6996842321251991e-01   5.1908422906805141e-01   3.6102290887811578e-01   3.6214942436847070e-01   4.3839933376229989e-01   4.8771992156930133e-01   8.5648198936731729e-02   1.8284284206743645e-01   1.8376728296540634e-01   9.6147094115770826e-02   2.6000095677343080e-04   6.6785323614202738e-02   8.8045640999605312e-01   8.7621862608305401e-01   1.9214320228447465e-01   5.6133761863016807e-01   7.3718537570634235e-02   4.6046440397476754e-03   2.2230333597794297e-01   5.1984450909432112e-01   8.1700274638606729e-01   1.9970106724385228e-01   4.7234529190029817e-01   4.9031365816148137e-01   5.3883149861167268e-01   3.7937915912780371e-04   4.8172865376412621e-01   4.8592524924457720e-01   0.0000000000000000e+00   2.9781782731321471e-04   0.0000000000000000e+00   1.1560147657635089e-02   1.0508136142819426e-02   7.4335012565875125e-01   3.6004221578981949e-01   6.2313808405007354e-01   5.1206202198681450e-01   1.7707507006496345e-01   6.3464802980624579e-01   8.8644508153319507e-03   4.1803704792782326e-01   3.8397421537138399e-01   1.7747453373965208e-01   1.7623346614908286e-01   1.0137816781977289e-02   3.4374603094352674e-01   3.6992899112016492e-01   4.3384355000510449e-01   3.7766997786909118e-01   1.5316725118688433e-03   5.3783631454420744e-01   7.6880120990426082e-01   4.5609431310920301e-01   6.0428162967657384e-01   5.0749256121816533e-01   9.9468432941765160e-04   4.5985327769794038e-01   4.6698350302138103e-01   5.0256124109353417e-01   8.0290711142048023e-03   4.8469413974594250e-01   5.0034765368620615e-01   1.4461937806438776e-03   4.4557150356146752e-01   4.3786780851677576e-04   8.9702839048021420e-03   5.3666302364994900e-01   1.6221617357343203e-03   7.0876211644900122e-01   7.6184615026682351e-03   7.4569061701785320e-03   7.3672214441118300e-01   2.1928702903102174e-01   1.8707544686641020e-03   3.0539792640291418e-04   1.3656903334296829e-03   3.2722905747860553e-01   1.3430136320622366e-02   1.5440445282842324e-01   4.1674011430338370e-01   8.6091265502529109e-04   1.2564967222725906e-01   1.2526258873317739e-01   2.6264190731911462e-04   6.4555476495511726e-06   2.1107970155201958e-01   0.0000000000000000e+00   5.5567465837285956e-01   4.1914543486315292e-01   5.1351127683384845e-01   4.8752811720564071e-01   3.9837893449573997e-01   3.3994755648689112e-01   1.7815817840000397e-01   1.1228522680364641e-02   1.8218507750347446e-01   4.0663739685204869e-01   2.1455501765984985e-04   6.8180337907408961e-01   1.4910054185512883e-01   6.3762816973290748e-01   3.7550446446619562e-04   2.7734016045449848e-04   2.0134032565607060e-01   6.2980982301683985e-01   1.5680361394697312e-01   1.4418006568564862e-01   6.5638350805960666e-01   3.0451479912630555e-02   2.7894865569585159e-01   3.7887598472204891e-03   3.1978543113910890e-01   2.7888051499316246e-01   2.6524382071798785e-01   4.0940656510850916e-02   2.5007927576146390e-04   1.8605119368865777e-01   2.6246013369699245e-01   2.5332843429650015e-01   7.3095970387562965e-04   8.6318320413640459e-01   6.3410826346450500e-01   2.1945369849241203e-01   4.0877171534788585e-02   4.5372676913708032e-01   3.7779421335724078e-01   6.2572155330076532e-04   5.0390066410156198e-01   4.2060633185315527e-02   3.2969401383736330e-01   3.1140076493324231e-01   7.6578018638802387e-03   8.6790922444514446e-03   5.0976145419388622e-02   2.4543911779102712e-01   2.8095764777781185e-01   2.3329095571231065e-04   4.3502497222963038e-02   7.4749187353527983e-03   3.3335676261612865e-02   8.8945233507372864e-02   1.1817086865375434e-01   1.7930931598903904e-01   6.4924130659129753e-01   2.3691186057941532e-01   1.9475444000023803e-01   6.6120421215387581e-01   3.5948562044151117e-01   2.6030838901426401e-01   2.3039633894086703e-01   3.8901217675639560e-01   2.7173503797133308e-01   6.6638393163794163e-01   3.0057821064532374e-04   1.7835518393569438e-01   6.6640458400825409e-01   1.5646680854019640e-01   2.5230148686730464e-01   6.2734352317762820e-01   6.1396542081013250e-01   2.5060102549951890e-01   6.7374081934879027e-01   1.0875730039652398e-01   3.4884773699180159e-02   3.5839529579080468e-04   6.0200558233574475e-01   6.9613012477907031e-04   1.8026350928170842e-01   1.7000450223785044e-01   2.7103184973374506e-01   1.4081321067014921e-01   4.4847648233743850e-04   2.0494052946696634e-01   2.0748115875586681e-01   3.4959053185561961e-01   3.8455199924611583e-01   6.7232318333328052e-03   1.0080899203195205e-01   3.1386806512505097e-02   1.8899498290172922e-01   1.8783481760856477e-01   1.8702316902697549e-01   2.0885749082397523e-01   4.8415516885054927e-01   5.8144110641608951e-04   4.2511619770651260e-01   5.1798529475360444e-01   7.7361239466092035e-03   1.7891767592013891e-01   1.7846062364308934e-01   5.7059402936434590e-03   3.6216743294240775e-03   4.4872659366936123e-03   8.2241567306902130e-03   1.7885038751986226e-01   9.1588345193523379e-02   1.7587940611081412e-01   2.5412494304812494e-01   3.0431487275210389e-01   2.9932963981590580e-02   2.5592783767845584e-01   6.1308314238470600e-02   3.7597941769113671e-02   2.3438002270353905e-02   5.3231486537802242e-02   1.0453945243791219e-02   1.5403381560935832e-03   3.2650708908801934e-01   1.7825806199730698e-01   3.4338819368849756e-03   4.3762171373860920e-01   1.1000735105343318e-01   2.0931426580181453e-01   3.7728977522650287e-01   1.7842118874769117e-01   2.8128921995289646e-01   1.0139897789348976e-03   7.8051234211554913e-03   1.2148948259799455e-05   7.9683626405418649e-04   4.2803309569879603e-04   0.0000000000000000e+00   2.2248424002457673e-01   8.1109530036484589e-01   6.7859216276915167e-04   2.8833425518756690e-02   1.9160413348048896e-01   7.5820448656597235e-06   1.7972079481745737e-01   5.6359850309915072e-01   1.1197720054364931e-02   0.0000000000000000e+00   4.5881616738654102e-01   7.1600840292844713e-03   7.7931472957264896e-03   1.0791744837535172e-02   8.9837926341055641e-03   5.1973419511264873e-01   5.1828978726679997e-01   1.7720896234246497e-01   0.0000000000000000e+00   1.9218003829256158e-01   4.5352922692225167e-01   1.3873775900860775e-02   5.8039067447418994e-03   1.7614373947879669e-01   7.8110225360702251e-02   1.9578529959544788e-01   4.5472156945483422e-01   3.4596824747310559e-02   6.4609555998610766e-03   5.1456911086048307e-01   9.1174598491438694e-03   4.1437598547343413e-01   4.0874742753188109e-01   9.1092322551789336e-03   4.8113472704821852e-01   4.8305720543746578e-01   2.4528321155713007e-01   5.0245930093093194e-01   8.6743507941076832e-03   7.3563203529937138e-01   2.3268012540790703e-01   8.3980403389135715e-03   4.7799320815952928e-01   8.1607902600065496e-01   2.0442719598699902e-01   3.7607919626659847e-01   1.9125751803105587e-01   3.8309197056023203e-01   7.6363414876141622e-01   5.3183228602264566e-04   6.7761858920372146e-04   1.7805824452641958e-01   4.0642434284904830e-03   2.9656541323718966e-01   2.8353092743754155e-01   3.3821461727781210e-01   2.9854956110143377e-01   2.3059555373814017e-03   1.0329011504792731e-03   6.5425081549996900e-01   8.3669448456125193e-04   2.1342288859452085e-01   5.1139694305925387e-01   1.8316793462585965e-01   8.3944888346135921e-04   1.8150229773235196e-01   4.1477398584584863e-01   6.0164610072001556e-01   2.8968549435432100e-01   6.7163894993508988e-01   5.3767613150876629e-04   5.2639116299410804e-01   6.4896099313411268e-02   4.2377463886186899e-02   3.3443779809371033e-01   3.1149550024116263e-01   1.2173710648527239e-01   1.2859914145547927e-01   6.8727794273716503e-01   6.0400482455768634e-01   5.1442416926317014e-01   9.4383888666326535e-02   1.7410480400819495e-01   4.5251398908876327e-02   4.0614351515876129e-01   3.0536712481434680e-01   3.1519483503775492e-01   2.9942736237683970e-01   2.3604276119499840e-01   2.5043058911683042e-01   1.9512387254751479e-05   2.3956075867794846e-01   2.5669806536525402e-01   2.3620410364213995e-01   2.3032760029816346e-01   2.3061764733428369e-01   4.9042460377379110e-01   4.2069889749583050e-01   4.2455198358635049e-01   4.0980794787581792e-01   4.0247396360187387e-01   4.1166309060681000e-01   6.0136077382965547e-01   5.5250320861607205e-01   5.0454232446783498e-01   3.4710392322007394e-01   4.5261275423989977e-01   6.9106393439628310e-03   7.9480196011475282e-03   1.8304144349240983e-01   1.9207401856507147e-01   5.7446921640946036e-01   4.0893674559383936e-01   1.8053289471172326e-01   1.8083906589392784e-01   1.5655359207024799e-01   1.7120146176479073e-01   1.3044166228011192e-01   3.7427231324985505e-01   3.9317088450755089e-01   4.7406826253981377e-01   5.4397885649200295e-01   4.1631527727612483e-01   5.3151697029195466e-01   5.8305498494732366e-01   1.8553791395655622e-01   1.8763408028887874e-01   1.7722682965382724e-01   1.7663747815081765e-01   7.4484588096644297e-04   4.5235546917278524e-01   4.0533054582127720e-01   1.1100339872006346e-01   1.2232722317075936e-01   3.9637176326774354e-01   5.5047757234949590e-02   5.7663240751451461e-01   1.7625717269436370e-01   5.2656282578068558e-01   4.4141658810254614e-01   3.1166941363776657e-01   5.1551597969541785e-01   5.1240929741595265e-01   3.4864172850940028e-01   4.1765172546955959e-01   1.7547317111466001e-01   1.7861316020225387e-01   1.7091542317037847e-01   4.0911841124051818e-01   6.9957732033479283e-02   1.7262242663686794e-01   1.6992092760209154e-01   9.0408828333031155e-02   1.5339034033443744e-01   4.3141192153943619e-01   2.4339035545480084e-01   2.4908077224015060e-01   2.0932142292583264e-01   4.5580966419569291e-01   1.6663190023669283e-01   1.8831712953263863e-01   1.8541085514912009e-01   2.6298711035636080e-01   4.7626562888092483e-01   3.4731795609892052e-01   3.3264650830165232e-01   4.1287864349761988e-01   2.1285495043501149e-01   1.8921500182691076e-01   7.2206218890555651e-01   1.8561867296348317e-01   1.8799955436857449e-01   1.8925282667687204e-01   7.7741029961938635e-01   7.6868832685951224e-02   2.7060657718114411e-01   2.1228759523974519e-01   2.8341396953441506e-01   8.0782251626322119e-02   9.3380961758201084e-02   6.9909808154471498e-01   5.5124842768110183e-03   6.5647143583140244e-01   5.9201755626764041e-01   1.8239742111299356e-01   2.3902451059491608e-01   4.5260875977271553e-01   2.1432649273755602e-01   7.6923369080631776e-01   8.0219916730756707e-02   7.3637819433403293e-02   2.7823712192571926e-01   2.4610905847018444e-01   3.0869592565217113e-01   8.4256120407450286e-01   2.2844307778550527e-01   5.0321678849552409e-01   5.2380301743916369e-01   1.3111512092702855e-02   1.4662787406465266e-02   1.9341022154781215e-02   3.9664361688794658e-01   2.0237424105278734e-01   9.5240011289179916e-02   1.0688968084091472e-02   3.8510487871888210e-01   0.0000000000000000e+00   4.6353778701332154e-01   3.9785001511494911e-01   6.4104151207910104e-02   3.9145572119596250e-01   3.8699527393138539e-01   3.9159979987560023e-01   5.9294114324431157e-02   4.2356811008489498e-01   7.2527301042194278e-02   2.5677074800813251e-04   7.8307246693393717e-01   6.4522673194215163e-01   7.0610173869122286e-02   3.4521906923814061e-01   3.2375525615422918e-01   3.7051530613685274e-01   3.6398827099357056e-01   3.5904092774497320e-01   4.5860933498900691e-01   5.2133762073305112e-01   1.1053098248659283e-02   8.0190402430699592e-01   4.4931521517306888e-01   2.9335210378604284e-04   5.0961907819287102e-04   3.3279352423170261e-01   3.3049660220978294e-01   3.5287081847782847e-01   4.5256395685843104e-03   5.9227804137848318e-03   1.7743507975524086e-04   2.9196632842455276e-03   6.8395566367409788e-01   5.9609646028068830e-01   4.5094079996044389e-01   5.6975713158270214e-01   7.0745603145845838e-03   7.9856717792369178e-03   4.7469934833262595e-01   5.2979454964365643e-04   2.8240266631058536e-01   5.2508935575116344e-01   1.6115869474184403e-04   2.8697442331899120e-01   3.0307391214500812e-01   4.1675521143191901e-03   1.0289081966379759e-03   3.9132966889585492e-03   3.8696664134506444e-04   4.9993624717908136e-02   6.6584872260620792e-02   1.0882613616369605e-04   0.0000000000000000e+00   6.2171249579807719e-01   3.3503472168531958e-04   2.2197948617743363e-01   4.9276256793839834e-01   2.9610130569454807e-01   5.9155239660620383e-02   2.0535428889380597e-01   4.1355784020424069e-01   4.7961348297402639e-01   4.7078731970276716e-01   4.0995871065876721e-01   5.2771945296824330e-01   6.4993882806846326e-01   6.2328944575734690e-01   5.6341739045070224e-03   3.3692953554638455e-01   7.5043335404048248e-04   5.4439238780947035e-03   2.3495729686246075e-01   4.9607404852124937e-01   2.4883577389477565e-01   4.4608387223678581e-01   8.1304390056131370e-01   4.5258891686250310e-04   4.9723954558322087e-01   5.3715894147105470e-01   6.1463602386379956e-01   2.5360872096184778e-01   1.7996404334396252e-01   6.4607377864833226e-01   4.6193696896356623e-01   6.0384877202013687e-01   3.4047927513107160e-04   1.7934268798269737e-01   1.3976357106713427e-01   1.7997201116764930e-01   2.5221383572657997e-02   2.0339336554633988e-01   1.4971921861147349e-02   3.2420476563396960e-01   1.1254916587499303e-02   8.4988089277535171e-04   1.8106824087111609e-01   8.1570340553275091e-04   1.0494965271749270e-03   2.9591955838389884e-03   4.2693934537801309e-01   9.0131132183641843e-04   1.8913051490543550e-01   1.7771607245757307e-01   2.3004140979577783e-01   1.8137110984457500e-01   1.8226089218429797e-01   2.9751050453453765e-01   7.9032730034573184e-01   4.5995078352225738e-01   1.9169336002896153e-01   3.9548742676638476e-01   1.7599159389707014e-01   7.6367072910329199e-04   3.2284551715984228e-01   5.2575058783331530e-01   2.3030885684228458e-01   4.8845008600959983e-01   1.4399598068413041e-01   1.8063400949819880e-01   2.3710600926552861e-01   4.9293726728089027e-01   8.5047736092982618e-01   8.4986183962586486e-04   7.1018070132456146e-02   7.2021460003789182e-04   4.5728253313183337e-01   4.6976202754927687e-01   4.6102358674988780e-01   9.6056731041137856e-03   2.8903092987284817e-01   3.1146345030251860e-01   3.6704040364631396e-01   9.1729260007763890e-03   2.3243453840236200e-01   5.1350811197578193e-02   7.8866977011857020e-01   3.4725498662609844e-01   3.9185367565501322e-01   9.0198743314588514e-01   3.5793117683701442e-01   4.7834514081405616e-01   4.0928259560262964e-01   8.2471336947456408e-01   7.4685760936272172e-01   1.3495082026545015e-02   2.4549797407874302e-01   2.5986209355407208e-01   5.4848619847757918e-01   7.6014039265552991e-01   1.7372432050377480e-02   3.5805208758311202e-01   2.6826845724940207e-01   8.6253885805138841e-01   2.7019179643242808e-01   2.5373959591936118e-01   8.0970626208924090e-01   4.4536071541230854e-01   4.0409461840287236e-01   4.1590741129538933e-01   1.0174368334677453e-01   4.2775867842238763e-01   1.1729170105660114e-01   1.5973081946612649e-02   2.9054126303729633e-01   5.5566704209110096e-01   1.4486376138409423e-02   3.9532826054855807e-01   5.4893506730460564e-04   3.7498273567601015e-01   4.6664459044303610e-04   9.1497510923279363e-03   5.0967316372745400e-04   1.9337270182974148e-01   1.9661011842982948e-01   8.8375284327315651e-01   5.4463064641532821e-01   5.5186296260973933e-01   7.8331566551746168e-01   1.6975211588749034e-01   1.7066592502741088e-01   5.4783622913677599e-01   2.7097778918326998e-01   3.2037285399889798e-01   5.9383003459151018e-01   1.7874650152102978e-01   1.8238320146411149e-01   1.8412146635868717e-01   1.7947167400544298e-01   1.8058533883069297e-01   3.4190496629157724e-01   6.1438004562166040e-02   7.6992278380701986e-03   1.9064594331060530e-02   2.0096214270287652e-01   5.2955928515010620e-01   5.2682840878648281e-02   1.2954975499799863e-02   7.8809517955088740e-02   4.1185451550851648e-01   4.6907016144661924e-02   5.0084743739697701e-01   7.1509827981384028e-02   4.9680492184751485e-02   4.9877809538912021e-02   4.8520983323685402e-01   6.2839477301601310e-01   6.0818541644990884e-02   6.2976708873338005e-01   6.6697022978838338e-01   5.4078934777675454e-02   8.2489751051191204e-02   6.8410595458572157e-02   6.7057827476068907e-02   5.6843439007401053e-01   4.4452141150867119e-01   3.9802285012670235e-01   4.8770047801928817e-01   5.9306140052381384e-01   5.6739534994959595e-01   2.8868279919836204e-01   3.4340386033037112e-04   2.4362244614807313e-01   3.1919346697517026e-01   4.5952660449397720e-01   2.7871227415349914e-01   2.8064459331832642e-01   2.3274836064679216e-01   1.7913112351346971e-01   8.5678323839003123e-01   1.7770031883322157e-01   1.7988480562171996e-01   2.1063619642489571e-02   9.0200508000667001e-05   5.8412696055589919e-01   5.1928114593014130e-01   1.7625619977288970e-01   2.0216950648382850e-01   1.9568235190340766e-01   7.8751834572302393e-01   9.096728350477