<?xml version="1.0"?>
<VTKFile type="UnstructuredGrid"  version="0.1"  >
<UnstructuredGrid>
<Piece  NumberOfPoints="747" NumberOfCells="1165">
<Points>
<DataArray  type="Float64"  NumberOfComponents="3"  format="ascii">56818.26305072499 -2506106.549119427 0  42243.18265024776 -2506857.639328673 0  29021.82503270428 -2504261.924403077 0  16550.12421826219 -2499855.084024415 0  4655.032296222308 -2495697.422200306 0  -7261.504300492456 -2494323.621393709 0  -18625.22209185599 -2493319.244519799 0  -29276.70419068305 -2491316.102597814 0  -39371.58555411869 -2489334.610554085 0  -48872.2887625367 -2487148.664179707 0  -56975.1983834749 -2482507.606906727 0  -64856.00389190487 -2478322.793323702 0  -73044.09528138349 -2475914.932075506 0  -80956.89453806292 -2474104.027428716 0  -88297.01099239565 -2471721.028140273 0  -95122.34251075231 -2468979.68610345 0  -102033.0976717825 -2467743.453790383 0  -108667.8585333195 -2467170.433637599 0  -114915.9932325953 -2465984.168528114 0  -120845.1804641294 -2464950.543945178 0  -126578.8706923529 -2464806.636550912 0  -131905.6385080613 -2465871.725308503 0  -137064.687279085 -2466513.84235653 0  -141931.6894689468 -2467114.408289441 0  -146558.2518132151 -2467929.3528441 0  -150981.1782706213 -2468467.119438711 0  -155134.7485423184 -2469150.351715567 0  -159045.2990449393 -2470116.702174883 0  -162783.5633652424 -2470995.874606837 0  -166363.671458142 -2471566.36883454 0  -169791.2094945778 -2472089.92531744 0  -173066.7170363216 -2472372.644023074 0  -176180.8272511644 -2472318.589143077 0  -179127.4549433015 -2471957.228690146 0  -181904.9538427488 -2471408.024018189 0  -184523.0000848745 -2470783.818157519 0  -187005.1824092157 -2470191.610932166 0  -189371.4710935979 -2469697.441393066 0  -191637.2486669229 -2469286.956885205 0  -193813.7840475813 -2468932.72635197 0  -195894.9751436561 -2468622.32397195 0  -197860.5122662469 -2468356.257574914 0  -199699.8496405249 -2468131.239090017 0  -201484.3799547247 -2467852.578310028 0  -203235.1081836333 -2467477.120196301 0  -204148.4039899458 -2468231.328417643 0  -204779.4006070163 -2469477.772737175 0  -206226.3182912302 -2469895.043213626 0  -207209.0484690831 -2471050.353437294 0  -206633.7342709575 -2472198.562901576 0  -206689.2205673746 -2473699.963528 0  -207439.3355646643 -2474578.344737141 0  -208686.077261504 -2475226.075148567 0  -208911.224951669 -2476610.681926033 0  -209786.4032029276 -2477610.304923216 0  -210530.8593792382 -2478701.972600761 0  -211347.3117581898 -2479598.487775704 0  -212436.1994711102 -2480321.158208149 0  -211661.3579813032 -2481227.303558039 0  -212339.4592376566 -2482164.498648201 0  -213368.6786835724 -2482893.361192783 0  -213823.9242874084 -2483849.45466838 0  -213959.3389029546 -2484975.339969706 0  -214654.5105929325 -2485857.893728198 0  -214924.9636302208 -2486897.99052352 0  -215387.1968803907 -2487861.977722809 0  -215850.8935184235 -2488606.845677634 0  -216850.3002300822 -2488718.42607849 0  -217786.1788875306 -2488773.814743428 0  -218655.6596527224 -2488960.510713411 0  -219459.2999881662 -2489050.843080118 0  -220215.8572609511 -2489415.86959818 0  -220949.8949656503 -2489578.990779826 0  -221671.8184129359 -2489638.232601265 0  -222360.8395383537 -2489613.467831609 0  -222996.7344008797 -2489634.843068176 0  -223565.7511683207 -2489892.292788903 0  -224056.7930683517 -2490349.213746534 0  -224487.3350267241 -2490843.9928667 0  -224917.776609416 -2491084.259717198 0  -225385.9512610532 -2490939.6600004 0  -225871.0057115029 -2490692.412192973 0  -226347.6588061106 -2490593.974681439 0  -226807.4764604085 -2490599.669749292 0  -227247.6549526961 -2490611.50259405 0  -227666.4916287626 -2490611.945233863 0  -228063.1258911103 -2490614.649470013 0  -228437.2792766626 -2490619.621715965 0  -228789.0148414041 -2490611.440145575 0  -229118.6979285175 -2490579.661792117 0  -229427.7721220893 -2490551.675512337 0  -229718.2857126026 -2490575.632414152 0  -229992.0195062686 -2490686.778079117 0  -230250.5004979436 -2490869.571547285 0  -230495.0197162354 -2491060.637110347 0  -230726.6693575185 -2491208.220350035 0  -230946.3810285181 -2491273.695406383 0  -231155.1727872346 -2491240.482369016 0  -231354.5763814056 -2491151.916669652 0  -231546.3204437924 -2491058.490694704 0  -231732.1881906295 -2491000.058362073 0  -231914.0081666783 -2491009.477644776 0  -232092.2357485933 -2491100.02032591 0  -232263.9691545902 -2491246.068674924 0  -232425.9547039263 -2491419.407037552 0  -232574.5133449228 -2491597.360932464 0  -232704.8009038861 -2491776.874946281 0  -232810.4395700074 -2491960.360275827 0  -232883.2341085825 -2492150.113137818 0  -232912.9947800571 -2492348.349496039 0  -232888.518304726 -2492556.97189473 0  -232809.3398841225 -2492774.886297886 0  -232684.053466982 -2492998.772055723 0  -232523.4050637269 -2493224.618723386 0  -232341.870709994 -2493446.437774289 0  -232149.8049278373 -2493655.556957558 0  -231926.4623607639 -2493840.270994475 0  -231648.985213168 -2493990.591921999 0  -231333.5089516883 -2494114.232577013 0  -231011.2867655237 -2494226.909041754 0  -230716.5565724511 -2494352.83929517 0  -230448.2156366009 -2494566.308324145 0  -230174.691868224 -2494859.203920859 0  -229854.386277046 -2495099.245907737 0  -229456.0482055206 -2495181.232778375 0  -228998.936468587 -2495162.974046715 0  -228517.5500007842 -2495146.384058104 0  -228039.7566338337 -2495203.170887594 0  -227590.3999753736 -2495397.522350929 0  -227184.981929657 -2495766.19833274 0  -226750.2922870113 -2496024.476637892 0  -226213.5702095754 -2495994.660255382 0  -225600.3011662167 -2496052.877603892 0  -224958.9944484101 -2496261.85032066 0  -224327.7512929673 -2496330.814093316 0  -223631.5812784273 -2496280.649748585 0  -222879.2998883054 -2496301.667794817 0  -222254.9783848506 -2496634.523083093 0  -221626.1319051044 -2497065.090720322 0  -220761.0581340182 -2497211.459477382 0  -219968.5459241767 -2497393.939598728 0  -220203.5455070361 -2497899.480461085 0  -220855.9220298611 -2498603.237242675 0  -221131.2246077028 -2499252.862384938 0  -221774.7122121719 -2499660.862433717 0  -222479.7107982228 -2499760.827055608 0  -223033.1183148655 -2499984.859791101 0  -223490.2596104009 -2500462.200395656 0  -224062.3926326139 -2500600.027660071 0  -224541.1956214423 -2500228.786139573 0  -224949.7350095029 -2499888.083019758 0  -225341.0500730075 -2500225.130315016 0  -225757.1423292761 -2500548.432558256 0  -226180.3939651776 -2500786.080344201 0  -226538.177938963 -2501153.984901021 0  -226773.495284157 -2501569.98568693 0  -227039.0304909855 -2501911.932245616 0  -227468.9595916819 -2502129.814972885 0  -227798.6047508129 -2502389.299855465 0  -227884.9238541838 -2502832.388358992 0  -228126.2989976085 -2503276.196050428 0  -227861.5342855403 -2503623.445554566 0  -227372.9304734626 -2503907.390885711 0  -226957.5853764467 -2504175.647480549 0  -226606.2579015691 -2504483.304832757 0  -226161.0056828749 -2504866.856449728 0  -225815.0711509458 -2505316.314749662 0  -225762.8994468044 -2505806.079859471 0  -225997.7594286802 -2506242.915512673 0  -226398.1360973342 -2506619.148825204 0  -226765.9297719086 -2507036.084494513 0  -226845.4953021393 -2507500.960872594 0  -226465.0153921999 -2507962.631785552 0  -225845.8228635425 -2508243.541008709 0  -225251.6156104354 -2508190.021993677 0  -224690.1793840567 -2507897.641923884 0  -224100.3548492745 -2507553.624348171 0  -223414.5727227449 -2507371.21363621 0  -222654.4265297953 -2507276.075847208 0  -221912.0382560525 -2507297.337862614 0  -221266.9189332082 -2507785.266418245 0  -220681.0921292723 -2508353.609471263 0  -220062.6686429494 -2509000.329523423 0  -219236.8308144344 -2509174.655190252 0  -218255.6568359406 -2509399.603364403 0  -218572.4131759723 -2510066.725015923 0  -218861.5230561548 -2510964.91864626 0  -218883.3556157417 -2511846.204517832 0  -219353.8346553762 -2512525.731451487 0  -219963.2685976659 -2513082.42119797 0  -220488.7752431028 -2513679.96717993 0  -220885.2380172826 -2514382.263808274 0  -220990.1132767769 -2515108.665935786 0  -221485.0382534687 -2515632.998891791 0  -222155.0186764667 -2516036.139659067 0  -222390.5819874348 -2516597.550678985 0  -221683.5075769027 -2517109.541916781 0  -221049.1691573458 -2517587.936233334 0  -220341.3916149238 -2518020.204995572 0  -219495.2331410376 -2518369.688367899 0  -219546.7035698217 -2519131.218151119 0  -219685.2088385221 -2520038.091014113 0  -219723.4857113709 -2520890.499102236 0  -219511.8253665795 -2521706.050384868 0  -218768.9497051224 -2522318.273173176 0  -218062.3835558011 -2522951.471679174 0  -217792.1932780886 -2523832.754628343 0  -217721.1829300973 -2524802.156087346 0  -217105.5823664274 -2525632.89503949 0  -216114.3489158486 -2526130.198485046 0  -215762.8823642595 -2526977.667966621 0  -215624.0210213385 -2528047.606007989 0  -215626.57696477 -2529136.754249504 0  -215068.1955778405 -2530004.876344503 0  -214353.5819060722 -2530902.512838067 0  -213458.5631825881 -2531647.245829566 0  -212582.3066935458 -2532532.655828057 0  -211601.1993616105 -2533281.698502241 0  -210230.8203599756 -2533492.702960313 0  -209359.9819486135 -2532733.353591639 0  -207963.7301089823 -2532402.039407601 0  -207461.9620998055 -2533726.636299287 0  -206743.678788939 -2535012.373417936 0  -207794.6479248811 -2535697.474151645 0  -208706.2824926935 -2536681.47128792 0  -208662.8240783605 -2538140.018106792 0  -209359.9957095342 -2539157.350742796 0  -209716.6789857079 -2540401.743356431 0  -208811.4519281083 -2541468.645140812 0  -209077.7529802741 -2542648.334750617 0  -210420.4603172865 -2542562.067677911 0  -211621.9917404423 -2542541.993928391 0  -212754.33587808 -2543120.703356035 0  -212519.6312691136 -2544241.062718421 0  -213084.8685374894 -2545195.129669076 0  -214049.5779914909 -2545637.606566725 0  -215070.0904746166 -2545977.323497721 0  -215634.1102203288 -2546825.493334641 0  -215621.16885731 -2547930.190942091 0  -214942.2606588054 -2548830.648553029 0  -2
[...]
<CellData  Scalars="f_231"> 
<DataArray  type="Float64"  Name="f_231"  format="ascii">2.3150403437731440e-01   2.3311462340696057e-01   1.4101595397216106e-04   2.3457637566631931e-01   2.8276911895585306e-03   1.6104068888427023e-01   2.2128826087513667e-02   1.6261705963717876e-01   2.3045173890983939e-01   1.5400382071402219e-01   1.0210655591454546e-03   2.3276058987539158e-01   2.3671072957806708e-01   1.8958943531196515e-04   2.3732475482615470e-01   1.0483721531127008e-03   2.5551130579288565e-03   7.4464946364902272e-04   2.3236179477594321e-01   2.9649750530370113e-03   2.3131570050677042e-01   2.6663481382243224e-03   2.3236151043634154e-01   2.1537447886765129e-01   4.5580956247041979e-04   1.9891755229598679e-01   1.6724022042598022e-01   1.8657962242978954e-01   1.4397854805004642e-01   1.0929217329564100e-01   1.0745394897235315e-03   3.6432379488502899e-02   1.6992357345638343e-01   1.8340280281910590e-01   1.9007557407784412e-01   1.5111078582233398e-01   1.4687397173524427e-01   1.6064293347087494e-01   2.8821011639263927e-01   2.3305338080071597e-01   1.4990507805653511e-01   1.7594795473290781e-01   2.4746312513618879e-01   1.8270369917704138e-01   2.4153605990379190e-02   1.8238695434556954e-01   2.0829828791014307e-01   2.4573244906667045e-02   2.5429671743342419e-01   9.0261648331777383e-02   9.1916393043310354e-02   2.3264175950107913e-01   4.4712450488709192e-02   2.3420473339559350e-01   2.3198105068714359e-01   2.1893451099119071e-01   1.0823651216116847e-02   1.4630630059286948e-01   1.1438578118715763e-01   1.3406188433252231e-01   1.6314732394866477e-01   2.4623714400298596e-01   2.1421913837743831e-01   2.5383967674862798e-02   8.6421961953570686e-04   2.2211075254031878e-01   2.3372846342620310e-01   2.2704915836387929e-01   8.9450521325227725e-04   2.3270228027701437e-01   2.4627324460100480e-01   2.3002460768361047e-01   2.3092913645797192e-01   5.7500932799779123e-02   7.3433249654942981e-02   2.1500259109540513e-02   1.9232387814344401e-01   1.9761340265410315e-01   2.2030178682291221e-01   1.4403002195809160e-03   7.1776732943422980e-04   1.6020628358808561e-01   1.6073429208275733e-01   1.0837097942586247e-02   9.5404143148828294e-02   2.1792564852514840e-01   1.6567300132376142e-01   2.1082396184754454e-01   2.3544335439972680e-01   2.5299279563007426e-02   1.9267029854191216e-02   1.0732233808222859e-03   2.3651648579545964e-01   1.5148366319437223e-03   2.3549758580920235e-01   2.1106099494506378e-01   2.3524526205785429e-01   2.5012838479597330e-02   1.6187335230065925e-02   1.9304625496021183e-01   2.3684611049678708e-01   2.4264957876100818e-01   2.4015218722656193e-01   1.4890610597810227e-03   4.3926434594991896e-02   1.3373853308614645e-03   2.3005288171935501e-01   1.7414454364985930e-03   3.5952144371506276e-03   2.3865327658885199e-01   3.8040098937243942e-04   1.3361172064936240e-03   7.4691847585204210e-02   7.7669941501404077e-02   1.9606197646889209e-01   8.9480633519347405e-04   1.5090900108057775e-03   1.8073651137719103e-03   2.3281363854625001e-01   3.1570744778077709e-03   1.5597917863644760e-03   3.1142444391909748e-03   9.3158581157610013e-04   1.5990404780531509e-01   1.6969843079811450e-01   6.9361034325054527e-02   1.3746474279143792e-01   1.7323838864868618e-01   1.9387104186893619e-01   1.7465106243577203e-01   1.6702610315788458e-01   1.6818189151873789e-01   2.1742890363389339e-01   1.5835908704925719e-01   2.5195718015195101e-02   2.3634686703197549e-01   2.3752901421377429e-01   3.2903687793958594e-02   1.1822968028914705e-03   1.8744660432132104e-02   1.7130105904939985e-01   1.9141831288759611e-01   2.3131247287126339e-01   1.5681131963478517e-01   1.8743090367100403e-02   4.5782397467610816e-05   2.2121711632331886e-01   2.4092923282558815e-01   1.5881175109201107e-01   2.2539080691521535e-01   1.9316781931881960e-01   1.9153905884251698e-01   1.5055216269587879e-01   1.2853170123450996e-03   1.5130445062435791e-01   1.5997276916271508e-01   1.2875561234356020e-04   1.2178366368137319e-03   1.0157900754361262e-04   1.0873919080943257e-03   8.8780193216938088e-04   2.1080950535976611e-01   2.2181376720602447e-01   1.6132958701986347e-01   1.5884435315901840e-01   2.2956324864989960e-01   1.4467581640198934e-01   9.4587529964605370e-06   1.8241097745384297e-01   8.5546191457097839e-02   2.2928494060744350e-01   2.2917765598141718e-01   5.2687534524495594e-05   6.4616349534938278e-02   1.1338002932154770e-01   1.0964499922763062e-01   1.6371463292225202e-01   5.0183089188202644e-04   1.5064198017496769e-01   2.0972418553324940e-01   1.1522140699354616e-01   2.2704612170917537e-01   2.3588607033919978e-01   2.9945727710685996e-04   7.0899741154676121e-02   6.8491162591907517e-02   1.8443697820825553e-01   0.0000000000000000e+00   8.7084395574233572e-02   1.8381378230766823e-01   1.5294643746684245e-04   8.1547322069037809e-02   2.3768440857061099e-04   6.3886417343817008e-05   1.4317960575807856e-01   1.3776938744437914e-04   1.6894964753938002e-01   0.0000000000000000e+00   0.0000000000000000e+00   1.7426976644570413e-01   2.3478426383483930e-01   9.8394789428913942e-05   9.9141180767215961e-04   4.0033900105026544e-04   2.6581999489764196e-01   1.2395326352063322e-03   2.7971784586264724e-02   1.1664724750702710e-01   2.8333557555489997e-04   2.9487256845338417e-02   2.5821974794295311e-02   2.9260865608024116e-04   4.9104305589635594e-04   2.3101204051853658e-01   3.9943354624913255e-04   1.6675979244722047e-01   8.7772855613883302e-02   2.2260688036181772e-01   2.2138280569699381e-01   1.4172012497200151e-01   2.4918823195402362e-01   3.2621668407892622e-02   9.6924912091196928e-04   2.4464668911085918e-01   1.2514389770546130e-01   9.2687038431428568e-04   1.3619120197577989e-01   2.5275768036137687e-02   1.3360244339574393e-01   1.1582573856792097e-03   2.8402688880395724e-03   2.3338875673603957e-01   1.3605442313854577e-01   2.4684463008736661e-02   2.2457654161214681e-02   1.5173557702190815e-01   4.4856211664956449e-03   5.5696419769615708e-02   5.5061529094346650e-05   6.5517015716707386e-02   1.9426875136631733e-01   1.9921829005589853e-01   5.5833651650845344e-03   2.8870577823316207e-03   2.4680141987020171e-01   4.9790566260072014e-02   2.1549975807466795e-01   2.5128846968411321e-03   1.9746825433797499e-01   1.4480916519317868e-01   6.6421021239968431e-02   2.2817080562708033e-02   1.2436585896104338e-01   1.0633578005721936e-01   2.8394846875580597e-03   1.1835028811323521e-01   8.9964341019927729e-03   1.7917065268746055e-01   1.8402729178727750e-01   6.5849440926623662e-05   4.8434623923367667e-05   2.5176631234056921e-02   2.1742667564390969e-01   2.2477001495897087e-01   9.7009896011793293e-04   4.9111217990821469e-03   8.5141345517996141e-04   1.4793482413872492e-02   2.2990503718314490e-02   2.7404587231955050e-02   3.4587041309482244e-02   1.6168906287392690e-01   5.9205291923941986e-02   4.6588219220944117e-02   1.6419672416963313e-01   1.8332893040008177e-01   6.0290750941895371e-02   2.3813842163775190e-01   1.6850808116435806e-01   5.1502413895878382e-02   1.3247756349099687e-01   1.1293057982677611e-03   2.4013956379897278e-01   1.5080141770224392e-01   2.9750977285917787e-02   4.6283658488784886e-02   1.2537988648181178e-01   1.7054638505769468e-01   2.1487292997397364e-01   1.3783382154105253e-01   2.7335978518382154e-02   1.2043540625523980e-02   2.7179075477964439e-03   1.5690146227101626e-01   2.4444956259492639e-03   6.9003745702362881e-02   6.4367926378201074e-02   9.0894353084128438e-02   5.5594953161229525e-02   2.9684710667187931e-03   2.2926575357885293e-01   2.2905853398056958e-01   6.5522503085903780e-02   2.0833122040376739e-01   8.8174475291773183e-06   4.1037284637024329e-02   1.8880721919278379e-02   2.3532001778824158e-01   2.3227047876504431e-01   2.3406210159354562e-01   2.2632354718461586e-01   1.7943849386723151e-01   2.7520250722070038e-03   1.9474471700629259e-01   9.5632201500018235e-02   1.8177805813503905e-04   2.3767900518809398e-01   2.3801586873309666e-01   1.4639876300221222e-04   8.3455603547576276e-05   7.0724725082279628e-05   3.3203085105680850e-04   2.3638982343844911e-01   2.1360699126870979e-02   2.3823043965476898e-01   2.1032384699124301e-01   2.0396650867284721e-01   2.8705166481238823e-03   2.1100835790597688e-01   6.5460561299169832e-03   3.3434972776539198e-03   5.0784052014247356e-03   5.4323660448146608e-03   7.7276997791618485e-04   4.0138528562154950e-04   1.9231857150712070e-01   2.3101739573363606e-01   1.2149400900033143e-04   1.6548888067734763e-01   2.6451452734451517e-02   2.4691871728591555e-01   1.6617714324794255e-01   2.3012010412912565e-01   5.3467334408481233e-02   2.5307575839018524e-03   2.4557042627798423e-04   1.5809248313467870e-03   1.9630957066168937e-03   1.4227881563317979e-03   6.0286955805722241e-04   2.4655203049578528e-01   1.6375037210297921e-01   1.6655123669206450e-03   1.4326881761777708e-02   2.3389020523437970e-01   1.7178473144685879e-03   2.3548335022563477e-01   1.1479896264029237e-01   1.6676176692446460e-03   2.8477836315271430e-04   2.5528465727528898e-01   1.2872953866616498e-04   6.3748314881265740e-04   6.3390939805882819e-04   2.4260636725533777e-04   1.2350751384884651e-01   1.3224762770696119e-01   2.3685695897342651e-01   1.5308598456914997e-04   2.3423564915597542e-01   1.3935295951144733e-01   3.8437831564924938e-03   6.3389298238808449e-07   2.3760726655972469e-01   2.7605940656500731e-02   2.3472532000693061e-01   1.3898717038261421e-01   8.0202411405519997e-03   4.6791385339067755e-04   1.4209556521324671e-01   0.0000000000000000e+00   1.5953909598910743e-01   1.6313378861752961e-01   7.1385516104913169e-05   1.2651539731680070e-01   1.2789096363877064e-01   2.0830487871536776e-01   1.4602021309203853e-01   5.4395247657361531e-04   1.4238941914496367e-01   9.0160140366778510e-02   0.0000000000000000e+00   1.0190587556004355e-01   1.5793372114373752e-01   6.0309396376412541e-02   1.9408513021675713e-01   2.4870121238514697e-01   1.8402845729003031e-01   1.5666498163587123e-01   1.3078496471576008e-03   1.5911673503162900e-03   4.2088900033559362e-02   4.6832596034771402e-04   1.9398360716600116e-01   1.9994977262076261e-01   6.7453025979638981e-02   5.6813465980579417e-02   4.4790532359764712e-04   3.4450715087414892e-04   1.9371543942368386e-01   2.0839484408277692e-03   5.0173568619527049e-02   9.8393856665669091e-02   2.3526592425152879e-01   1.9377902886574265e-03   2.3496967082926812e-01   7.8795144592384736e-02   1.2775402912912753e-01   6.1529959013923795e-02   1.3545389933254282e-01   5.7522188449822618e-04   1.4374165062011773e-01   2.4058633784989496e-02   1.3668863724187567e-02   8.5570856973154752e-02   7.4525947988377528e-02   3.7693995256746965e-02   4.6564097590916120e-02   1.4054712146913487e-01   1.3413443427481792e-01   1.1458975959832851e-01   2.7544414759102399e-02   2.3354420827799210e-01   1.9454639378688542e-02   8.5880899051133525e-02   1.7781183779026502e-01   1.7294864144661154e-01   1.8181684012393995e-01   5.2206882883856776e-02   4.4504025104071650e-02   1.9064059908850337e-03   2.2588155177480301e-01   2.1881934032649172e-01   2.3158332406970328e-01   2.3128703885088159e-01   2.3279204634953579e-01   1.1398509855933243e-01   1.5727479839979575e-01   1.6487129678211698e-01   1.5528092101773128e-01   1.5877021994231905e-01   1.6338542412667156e-01   1.2651330351694887e-01   1.1530430202953228e-01   1.1347215291418773e-01   2.4298489473346513e-01   9.2448048650088460e-02   7.4823918550614320e-07   0.0000000000000000e+00   2.3627206047135066e-01   2.3327956029196525e-01   1.2580582605853241e-01   1.5579283124849827e-01   2.3728677791343750e-01   2.3702615089327242e-01   3.0251508009627046e-02   3.0719191972387577e-02   2.7521756966924882e-02   1.6802732701096615e-01   1.3503127979480262e-01   2.5264219268860005e-01   1.3200050687182049e-01   8.9830100319753914e-02   1.5487971875613776e-01   2.2374896231817995e-01   2.3417641931922628e-01   2.3392695089069748e-01   2.3827912859429085e-01   2.3882066113008024e-01   1.9779039277149474e-03   1.0738679263214974e-01   9.6769048533443813e-02   2.2809825122439738e-02   2.3127184105073258e-02   6.0008770137697259e-02   1.5539570912153479e-02   1.4493633562389246e-01   2.3421853632411047e-01   1.7152479064730633e-01   2.6158455424878363e-01   5.6878268396385434e-02   1.7235074247164039e-01   1.7753102803423779e-01   6.9137377654494084e-02   2.3671021076377619e-01   2.4346959023729811e-01   2.3506758846250247e-01   2.4196057683942962e-01   2.6774565620906143e-01   1.5463038014164099e-02   2.4017581210382682e-01   2.4087488150663106e-01   2.1944150550494521e-02   4.3284639872156319e-02   1.4828394374092582e-01   1.4385888104656444e-01   5.0553662942489301e-02   3.8904420468655519e-02   1.4088729956731272e-01   3.1847910754430844e-02   2.3556565389429721e-01   2.3608301880468835e-01   1.7630853261126173e-01   2.4295250055202644e-01   1.6782586199413985e-01   1.6941059739599254e-01   2.6276629703672827e-01   2.7870916031119702e-01   2.8818448769003963e-01   1.9598268226323387e-01   2.3776636218582134e-01   2.3719812445851887e-01   2.3826635500612550e-01   1.6316953804282902e-01   1.6775570909831585e-02   2.0672922759348639e-01   2.2346596012367573e-01   6.2007900651641967e-02   1.7755258248689738e-02   2.1858561118624817e-02   1.8828287020020235e-01   1.7306218089334033e-06   2.1808881758800841e-01   2.2724479967687505e-01   2.3595573208785209e-01   2.2104200894228893e-01   1.4680860407047883e-01   2.2959321151453638e-01   1.6815145012607388e-01   2.8361176360985039e-02   1.9939877650343486e-02   2.2081689217007977e-01   5.7042494110495737e-02   6.8879762777055334e-02   1.9396646621945574e-01   2.3043995675717430e-01   1.6397400077243574e-01   1.6703606899675222e-01   1.1677914431076309e-03   1.2787347125348472e-03   1.6429364172450113e-03   2.3350554830344314e-01   4.4797484521284112e-02   2.6083634628283114e-02   2.0809712493028618e-03   2.3759889584571728e-01   3.4080693922263627e-04   2.3935472815849734e-01   2.4033852699509700e-01   1.5594816183257199e-02   1.7054197326520809e-01   1.7151789091249853e-01   1.6772016217050983e-01   1.0542938098419202e-02   2.4148673154480804e-01   1.5942638881212137e-02   1.1723664905526412e-03   2.0911152287603035e-01   2.1914124553438960e-01   1.3928608581948308e-02   1.8165180215870858e-01   1.8773204959776035e-01   1.6410764431813660e-01   1.7445811123287958e-01   1.7343433771824818e-01   8.2567796805431290e-02   1.5570561867700436e-01   1.8722184854317228e-04   2.0752663405291499e-01   8.6715933451939509e-02   3.2262997386901171e-03   3.3372927749973579e-03   7.0689902553156991e-02   2.5463612769073857e-01   2.2857312149848369e-01   8.9793506699203089e-05   1.3652034240719957e-05   2.6326430724233837e-03   3.4648540711524489e-05   1.5932022277081026e-01   1.5068532421236741e-01   8.6051094404723208e-02   1.5444032251185630e-01   0.0000000000000000e+00   1.1794786100609843e-07   1.7484309503143766e-01   1.4497593580194952e-03   1.8013335019966548e-01   1.0163795769148441e-01   8.1039365215096980e-04   2.0044739813005413e-01   1.4265904419911116e-01   4.5534487570978628e-06   2.2379733712110089e-03   4.0913582245515236e-05   6.4990299394356845e-04   1.5050001206078533e-02   2.3086296677084173e-02   7.3189042732493348e-04   2.6670412284369896e-04   1.2555554316692669e-01   3.0655205225987785e-03   2.1899590915580430e-01   1.1676854073811926e-01   7.8726819251158056e-02   1.7689371259070181e-02   2.2448138785761268e-01   7.9360180937361774e-02   1.6275300076213703e-01   1.6391802342975947e-01   1.6255342752444638e-01   1.5008439608498755e-01   1.7343336295500200e-01   1.6552952777497509e-01   2.8053691470977547e-06   6.5528322284191712e-02   3.1630472616221098e-03   8.4064804466364126e-07   2.1468694299589625e-01   1.5881651575170361e-01   2.0872048500431392e-01   2.2419155842985619e-01   2.0567975460238447e-01   3.2217527848468087e-03   1.4096046778832658e-01   1.4001127861024129e-01   1.3974489773538093e-01   2.0411796233172760e-01   2.2989612066652265e-01   1.3485172580026444e-01   1.3489235836010102e-01   1.5591509909950302e-01   3.3464426417756468e-03   2.3160569868443040e-01   3.2679430531722856e-02   2.3147500072793237e-01   1.0151946558375343e-02   4.6812867442926669e-02   7.0168839516430454e-03   9.2205054411253304e-02   4.8731767663734490e-03   2.2231433911546962e-03   2.3066559576196111e-01   2.0935288899798566e-03   2.2820206993324148e-04   8.8317846753157610e-05   2.4990291030673872e-01   2.2209681729413984e-03   2.3268992278732334e-01   2.3784225894880490e-01   2.2728310321634654e-01   2.3701683481615321e-01   2.3686861405722878e-01   2.0031864234337166e-01   2.0365052160197167e-01   1.1150319384254348e-01   3.1761112760273463e-02   1.9582216459961629e-01   3.0049992718833372e-02   1.9961672678211191e-03   6.1335373620018674e-02   1.4661776160815376e-01   2.1356824039851949e-01   1.1858657111017970e-01   2.1918756416702337e-02   2.8843828397050214e-02   4.1666470620557144e-02   1.1784521435432732e-01   1.9949524002800945e-01   1.9643098061717418e-03   1.5928162970608378e-02   1.6155036491651894e-03   1.0080101364647118e-01   1.6659230300389052e-01   1.6304160581301311e-01   6.8580096651695011e-04   2.0743200479508195e-01   1.9477823590190263e-01   1.2098083702701815e-01   3.0685277671962041e-04   2.7536845734765192e-01   1.7795455698722894e-02   2.0527520102737340e-01   1.9661836703269359e-01   8.8665758689307914e-02   1.8470413025557558e-01   1.9152340226050715e-01   1.4173005328436833e-01   1.6012147045064604e-01   2.0275094865650492e-01   1.7746501159245298e-01   2.2826920039338149e-03   2.4246865387221397e-01   2.6607800274226184e-01   1.6104025890794657e-01   1.7119229286278109e-01   4.3340073890805368e-03   2.0117733129859156e-01   2.1672499933479761e-01   1.9115592468479981e-01   2.2079097273207360e-01   5.9106310239897174e-02   1.8767403655882681e-01   1.3895274721057271e-01   1.8017987811810976e-01   1.6029766261130829e-01   1.6880183779592182e-02   1.8284957692849502e-01   1.7645056131937772e-02   1.4525552166925726e-03   1.9194318676707747e-01   1.5381394898468639e-01   1.3225909941270658e-03   1.8651204272081887e-01   1.8417150316472964e-03   1.9074899592452532e-01   1.6430254186552884e-03   4.7836130942488443e-04   1.5398175725036868e-03   2.3806282328928374e-01   2.3832936509299540e-01   1.9378509363340091e-01   1.9888863534274812e-01   1.9707450665906440e-01   1.7324034132615201e-01   2.3886949328855378e-01   2.3797582778980952e-01   2.0703357217103946e-01   9.3672554561763682e-02   2.0526010912566278e-01   1.2853689031164120e-01   2.3472887165966649e-01   2.3351965924077406e-01   2.3466921936314294e-01   2.3582894065474677e-01   2.3667833509640446e-01   1.9534275559170933e-01   8.4254185556264551e-03   2.7671058367266529e-05   3.0221202377327802e-03   2.2758431322901207e-01   1.3178757151857903e-01   9.3049401510154235e-03   1.2582171018303736e-03   1.4002773840754984e-02   1.9437970579635261e-01   8.3520998771990183e-03   2.0967522219712359e-01   1.3836248326997570e-02   1.2628329691266678e-02   9.4466094367406037e-03   1.5093545701783601e-01   1.3726584621642238e-01   1.2869466527461139e-02   1.3816290575318341e-01   1.3567632369460086e-01   6.3243785261867949e-03   1.4608964745613687e-02   8.8725049434943588e-03   1.1285301006436172e-02   1.6217967830605878e-01   9.2901690899592174e-02   1.0393766805817667e-01   1.2422560632967866e-01   1.4119342970707435e-01   1.4511928869137891e-01   5.5254153328924846e-02   4.3728112235906838e-04   4.4025804380794793e-02   2.2289398703573621e-01   2.3725182233931963e-01   2.1825151378879876e-01   2.3471882023915780e-01   7.8093490610034039e-02   2.3734554810484490e-01   1.9775192720633228e-01   2.3804297340550445e-01   2.3658457831802104e-01   2.0104818681937905e-03   6.1390425969745405e-04   1.6966059601951328e-01   1.2464023409397476e-01   2.3503749279913369e-01   2.3205434151080168e-01   2.3372316852228295e-01   1.8507080982340673e-01   1.918135259757