<?xml version="1.0"?>
<VTKFile type="UnstructuredGrid"  version="0.1"  >
<UnstructuredGrid>
<Piece  NumberOfPoints="747" NumberOfCells="1165">
<Points>
<DataArray  type="Float64"  NumberOfComponents="3"  format="ascii">56818.26305072499 -2506106.549119427 0  42243.18265024776 -2506857.639328673 0  29021.82503270428 -2504261.924403077 0  16550.12421826219 -2499855.084024415 0  4655.032296222308 -2495697.422200306 0  -7261.504300492456 -2494323.621393709 0  -18625.22209185599 -2493319.244519799 0  -29276.70419068305 -2491316.102597814 0  -39371.58555411869 -2489334.610554085 0  -48872.2887625367 -2487148.664179707 0  -56975.1983834749 -2482507.606906727 0  -64856.00389190487 -2478322.793323702 0  -73044.09528138349 -2475914.932075506 0  -80956.89453806292 -2474104.027428716 0  -88297.01099239565 -2471721.028140273 0  -95122.34251075231 -2468979.68610345 0  -102033.0976717825 -2467743.453790383 0  -108667.8585333195 -2467170.433637599 0  -114915.9932325953 -2465984.168528114 0  -120845.1804641294 -2464950.543945178 0  -126578.8706923529 -2464806.636550912 0  -131905.6385080613 -2465871.725308503 0  -137064.687279085 -2466513.84235653 0  -141931.6894689468 -2467114.408289441 0  -146558.2518132151 -2467929.3528441 0  -150981.1782706213 -2468467.119438711 0  -155134.7485423184 -2469150.351715567 0  -159045.2990449393 -2470116.702174883 0  -162783.5633652424 -2470995.874606837 0  -166363.671458142 -2471566.36883454 0  -169791.2094945778 -2472089.92531744 0  -173066.7170363216 -2472372.644023074 0  -176180.8272511644 -2472318.589143077 0  -179127.4549433015 -2471957.228690146 0  -181904.9538427488 -2471408.024018189 0  -184523.0000848745 -2470783.818157519 0  -187005.1824092157 -2470191.610932166 0  -189371.4710935979 -2469697.441393066 0  -191637.2486669229 -2469286.956885205 0  -193813.7840475813 -2468932.72635197 0  -195894.9751436561 -2468622.32397195 0  -197860.5122662469 -2468356.257574914 0  -199699.8496405249 -2468131.239090017 0  -201484.3799547247 -2467852.578310028 0  -203235.1081836333 -2467477.120196301 0  -204148.4039899458 -2468231.328417643 0  -204779.4006070163 -2469477.772737175 0  -206226.3182912302 -2469895.043213626 0  -207209.0484690831 -2471050.353437294 0  -206633.7342709575 -2472198.562901576 0  -206689.2205673746 -2473699.963528 0  -207439.3355646643 -2474578.344737141 0  -208686.077261504 -2475226.075148567 0  -208911.224951669 -2476610.681926033 0  -209786.4032029276 -2477610.304923216 0  -210530.8593792382 -2478701.972600761 0  -211347.3117581898 -2479598.487775704 0  -212436.1994711102 -2480321.158208149 0  -211661.3579813032 -2481227.303558039 0  -212339.4592376566 -2482164.498648201 0  -213368.6786835724 -2482893.361192783 0  -213823.9242874084 -2483849.45466838 0  -213959.3389029546 -2484975.339969706 0  -214654.5105929325 -2485857.893728198 0  -214924.9636302208 -2486897.99052352 0  -215387.1968803907 -2487861.977722809 0  -215850.8935184235 -2488606.845677634 0  -216850.3002300822 -2488718.42607849 0  -217786.1788875306 -2488773.814743428 0  -218655.6596527224 -2488960.510713411 0  -219459.2999881662 -2489050.843080118 0  -220215.8572609511 -2489415.86959818 0  -220949.8949656503 -2489578.990779826 0  -221671.8184129359 -2489638.232601265 0  -222360.8395383537 -2489613.467831609 0  -222996.7344008797 -2489634.843068176 0  -223565.7511683207 -2489892.292788903 0  -224056.7930683517 -2490349.213746534 0  -224487.3350267241 -2490843.9928667 0  -224917.776609416 -2491084.259717198 0  -225385.9512610532 -2490939.6600004 0  -225871.0057115029 -2490692.412192973 0  -226347.6588061106 -2490593.974681439 0  -226807.4764604085 -2490599.669749292 0  -227247.6549526961 -2490611.50259405 0  -227666.4916287626 -2490611.945233863 0  -228063.1258911103 -2490614.649470013 0  -228437.2792766626 -2490619.621715965 0  -228789.0148414041 -2490611.440145575 0  -229118.6979285175 -2490579.661792117 0  -229427.7721220893 -2490551.675512337 0  -229718.2857126026 -2490575.632414152 0  -229992.0195062686 -2490686.778079117 0  -230250.5004979436 -2490869.571547285 0  -230495.0197162354 -2491060.637110347 0  -230726.6693575185 -2491208.220350035 0  -230946.3810285181 -2491273.695406383 0  -231155.1727872346 -2491240.482369016 0  -231354.5763814056 -2491151.916669652 0  -231546.3204437924 -2491058.490694704 0  -231732.1881906295 -2491000.058362073 0  -231914.0081666783 -2491009.477644776 0  -232092.2357485933 -2491100.02032591 0  -232263.9691545902 -2491246.068674924 0  -232425.9547039263 -2491419.407037552 0  -232574.5133449228 -2491597.360932464 0  -232704.8009038861 -2491776.874946281 0  -232810.4395700074 -2491960.360275827 0  -232883.2341085825 -2492150.113137818 0  -232912.9947800571 -2492348.349496039 0  -232888.518304726 -2492556.97189473 0  -232809.3398841225 -2492774.886297886 0  -232684.053466982 -2492998.772055723 0  -232523.4050637269 -2493224.618723386 0  -232341.870709994 -2493446.437774289 0  -232149.8049278373 -2493655.556957558 0  -231926.4623607639 -2493840.270994475 0  -231648.985213168 -2493990.591921999 0  -231333.5089516883 -2494114.232577013 0  -231011.2867655237 -2494226.909041754 0  -230716.5565724511 -2494352.83929517 0  -230448.2156366009 -2494566.308324145 0  -230174.691868224 -2494859.203920859 0  -229854.386277046 -2495099.245907737 0  -229456.0482055206 -2495181.232778375 0  -228998.936468587 -2495162.974046715 0  -228517.5500007842 -2495146.384058104 0  -228039.7566338337 -2495203.170887594 0  -227590.3999753736 -2495397.522350929 0  -227184.981929657 -2495766.19833274 0  -226750.2922870113 -2496024.476637892 0  -226213.5702095754 -2495994.660255382 0  -225600.3011662167 -2496052.877603892 0  -224958.9944484101 -2496261.85032066 0  -224327.7512929673 -2496330.814093316 0  -223631.5812784273 -2496280.649748585 0  -222879.2998883054 -2496301.667794817 0  -222254.9783848506 -2496634.523083093 0  -221626.1319051044 -2497065.090720322 0  -220761.0581340182 -2497211.459477382 0  -219968.5459241767 -2497393.939598728 0  -220203.5455070361 -2497899.480461085 0  -220855.9220298611 -2498603.237242675 0  -221131.2246077028 -2499252.862384938 0  -221774.7122121719 -2499660.862433717 0  -222479.7107982228 -2499760.827055608 0  -223033.1183148655 -2499984.859791101 0  -223490.2596104009 -2500462.200395656 0  -224062.3926326139 -2500600.027660071 0  -224541.1956214423 -2500228.786139573 0  -224949.7350095029 -2499888.083019758 0  -225341.0500730075 -2500225.130315016 0  -225757.1423292761 -2500548.432558256 0  -226180.3939651776 -2500786.080344201 0  -226538.177938963 -2501153.984901021 0  -226773.495284157 -2501569.98568693 0  -227039.0304909855 -2501911.932245616 0  -227468.9595916819 -2502129.814972885 0  -227798.6047508129 -2502389.299855465 0  -227884.9238541838 -2502832.388358992 0  -228126.2989976085 -2503276.196050428 0  -227861.5342855403 -2503623.445554566 0  -227372.9304734626 -2503907.390885711 0  -226957.5853764467 -2504175.647480549 0  -226606.2579015691 -2504483.304832757 0  -226161.0056828749 -2504866.856449728 0  -225815.0711509458 -2505316.314749662 0  -225762.8994468044 -2505806.079859471 0  -225997.7594286802 -2506242.915512673 0  -226398.1360973342 -2506619.148825204 0  -226765.9297719086 -2507036.084494513 0  -226845.4953021393 -2507500.960872594 0  -226465.0153921999 -2507962.631785552 0  -225845.8228635425 -2508243.541008709 0  -225251.6156104354 -2508190.021993677 0  -224690.1793840567 -2507897.641923884 0  -224100.3548492745 -2507553.624348171 0  -223414.5727227449 -2507371.21363621 0  -222654.4265297953 -2507276.075847208 0  -221912.0382560525 -2507297.337862614 0  -221266.9189332082 -2507785.266418245 0  -220681.0921292723 -2508353.609471263 0  -220062.6686429494 -2509000.329523423 0  -219236.8308144344 -2509174.655190252 0  -218255.6568359406 -2509399.603364403 0  -218572.4131759723 -2510066.725015923 0  -218861.5230561548 -2510964.91864626 0  -218883.3556157417 -2511846.204517832 0  -219353.8346553762 -2512525.731451487 0  -219963.2685976659 -2513082.42119797 0  -220488.7752431028 -2513679.96717993 0  -220885.2380172826 -2514382.263808274 0  -220990.1132767769 -2515108.665935786 0  -221485.0382534687 -2515632.998891791 0  -222155.0186764667 -2516036.139659067 0  -222390.5819874348 -2516597.550678985 0  -221683.5075769027 -2517109.541916781 0  -221049.1691573458 -2517587.936233334 0  -220341.3916149238 -2518020.204995572 0  -219495.2331410376 -2518369.688367899 0  -219546.7035698217 -2519131.218151119 0  -219685.2088385221 -2520038.091014113 0  -219723.4857113709 -2520890.499102236 0  -219511.8253665795 -2521706.050384868 0  -218768.9497051224 -2522318.273173176 0  -218062.3835558011 -2522951.471679174 0  -217792.1932780886 -2523832.754628343 0  -217721.1829300973 -2524802.156087346 0  -217105.5823664274 -2525632.89503949 0  -216114.3489158486 -2526130.198485046 0  -215762.8823642595 -2526977.667966621 0  -215624.0210213385 -2528047.606007989 0  -215626.57696477 -2529136.754249504 0  -215068.1955778405 -2530004.876344503 0  -214353.5819060722 -2530902.512838067 0  -213458.5631825881 -2531647.245829566 0  -212582.3066935458 -2532532.655828057 0  -211601.1993616105 -2533281.698502241 0  -210230.8203599756 -2533492.702960313 0  -209359.9819486135 -2532733.353591639 0  -207963.7301089823 -2532402.039407601 0  -207461.9620998055 -2533726.636299287 0  -206743.678788939 -2535012.373417936 0  -207794.6479248811 -2535697.474151645 0  -208706.2824926935 -2536681.47128792 0  -208662.8240783605 -2538140.018106792 0  -209359.9957095342 -2539157.350742796 0  -209716.6789857079 -2540401.743356431 0  -208811.4519281083 -2541468.645140812 0  -209077.7529802741 -2542648.334750617 0  -210420.4603172865 -2542562.067677911 0  -211621.9917404423 -2542541.993928391 0  -212754.33587808 -2543120.703356035 0  -212519.6312691136 -2544241.062718421 0  -213084.8685374894 -2545195.129669076 0  -214049.5779914909 -2545637.606566725 0  -215070.0904746166 -2545977.323497721 0  -215634.1102203288 -2546825.493334641 0  -215621.16885731 -2547930.190942091 0  -214942.2606588054 -2548830.648553029 0  -2
[...]
<CellData  Scalars="f_207"> 
<DataArray  type="Float64"  Name="f_207"  format="ascii">5.7425313696111857e-01   5.1748684026966063e-01   2.5671403804303341e-04   1.4249038867677100e+00   1.1945941480752072e-02   4.1344593500301379e+00   1.7772954504419518e+00   4.1786763137336287e+00   1.4529524073710389e+00   4.0208678327826934e+00   6.8160458521819178e-02   3.8149717881981066e-01   3.7155426132259906e-01   2.2633351612384206e-01   3.6603139195340839e-01   5.5435253761891227e-02   2.1325940626907739e-02   7.8991450036880011e-03   3.9373248795203186e-01   8.5149559019196597e-01   4.0023211428023131e-01   2.1879336420012382e-02   4.3081103266726617e-01   1.0171317502188884e+00   7.3098581952091603e-03   1.8028237633634450e+00   3.6357451601314175e+00   1.9242796778261084e+00   3.0715415248092959e+00   2.5680360378496054e+00   1.1863074906758275e-01   2.2454003654081998e+00   3.2444910907498592e+00   1.6649505806563796e+00   1.5040667220110924e+00   2.2636616800411087e+00   3.5496702897699719e+00   4.0932716184746321e+00   1.0619347067274549e+00   2.3639752822141418e+00   3.6748787138279062e+00   2.7495359618099315e+00   1.8902538138237315e+00   2.6930901465687125e+00   2.5195126513162882e+00   2.5221492272423496e+00   3.3419230511312219e+00   2.6430712532261631e+00   1.2673805252086188e+00   2.9774337497588381e+00   3.0685812470737353e+00   3.7621788278329893e-01   2.5773134175414736e+00   4.1751414483791116e-01   3.6979616155397904e-01   2.2209206615072610e+00   1.0706371302973108e+00   3.6038030207944591e+00   2.5510661770742322e+00   3.6595599914626877e+00   3.0384254398401804e+00   1.5149246051741572e+00   2.5719723737101678e+00   2.1906876969064348e+00   1.0857654575379569e-01   1.1928997098164409e+00   4.2637515880488197e-01   1.0778393719599975e+00   9.8733425968730387e-02   4.1518365055425283e-01   1.6331027235791145e+00   4.2288093288672229e-01   4.1454687166456150e-01   2.3206849780344614e+00   2.6733368573924410e+00   2.2746251787474456e+00   1.9296268254315401e+00   1.7553025243175564e+00   7.9835245922462372e-01   5.8335131227183923e-01   5.5340659073304299e-01   2.4167302807605959e+00   2.4446393343511774e+00   1.7346130384306360e+00   3.2304866437934319e+00   8.4095264496589905e-01   2.3201159200315935e+00   1.5260012061850750e+00   3.9253657184746049e-01   1.6594171854422632e+00   1.5536110817178124e+00   3.8192875984495098e-03   3.6606327695882718e-01   7.6187946435162428e-03   3.7073058543221871e-01   1.5682089921630191e+00   3.6402474912611338e-01   1.7659380698428362e+00   1.8895700647028320e+00   2.6110956764637456e+00   4.1963592613852713e-01   4.5501893915767949e-01   5.9303532309684537e-01   5.5329406703634995e-02   2.4448953237050524e+00   6.4342547575605835e-01   1.9377009898460149e+00   6.6800183537369562e-01   7.9912885879213902e-01   3.8780311585512928e-01   5.9016372604166911e-01   6.7845475607234890e-02   3.0362538371820151e+00   3.0792650067910459e+00   2.5289780642982520e+00   2.2372770668340888e-03   6.8552794125467031e-01   7.1693898755677909e-01   7.6183151272424576e-01   1.1691612599651778e-02   5.4054149287295974e-03   1.0201841235563941e-02   1.0593913894621761e-01   2.5948632678109291e+00   4.0929179091555916e+00   3.0423416040357667e+00   2.3045279143483399e+00   4.0998763640026663e+00   2.3457534260019113e+00   2.4824204831430539e+00   2.1138995097338462e+00   2.0853428404419891e+00   2.0425877682865896e+00   3.0178710956853090e+00   1.7046488583763577e+00   4.4773014738584366e-01   4.5275777561331410e-01   1.8397144300132835e+00   8.2333965568801737e-02   1.4648778948187973e+00   4.4616255327856722e+00   4.2781124757769726e+00   5.5145063897081714e-01   3.5366259573994618e+00   1.5264283041344662e+00   2.2402012447333580e-01   7.2082129955228336e-01   2.2999758786898670e+00   4.3607338909801161e+00   5.4247694312018901e-01   2.7780822100596851e+00   2.9218172636597557e+00   3.1907072437712722e+00   3.3930267870326311e-02   2.8213052556099640e+00   2.7100188540489829e+00   3.7097482707303911e-04   3.6399299664476692e-02   2.5892455939622959e-04   5.5731104329103254e-01   5.0503874481829869e-01   3.2311440208423265e+00   1.8763890420462688e+00   3.0996009504422695e+00   2.9166036183025152e+00   4.1006817585410010e-01   3.2601637695121948e+00   4.2985967664129965e-01   2.2573091470932445e+00   2.6192703976660092e+00   4.1313704534414070e-01   4.0165059012235665e-01   4.9854842475586775e-01   2.8985744038154868e+00   3.0994506566346667e+00   3.4290046477288780e+00   2.2585645496331810e+00   1.5283752769154615e-01   3.5065629764273343e+00   3.3778981318804027e+00   3.5114633839128828e+00   2.5814405723160117e+00   2.1065012397327600e+00   1.8045328299090568e-01   3.1698796171016781e+00   3.1403300844010258e+00   3.0579669882549898e+00   3.6454658626066500e-01   3.2985260523387923e+00   3.0496803220051389e+00   2.1047891185914819e-01   3.1329052183060369e+00   1.7476743674379203e-01   4.6355093366985339e-01   3.1994885945702025e+00   2.2107458367759256e-01   3.9792180753848339e+00   3.7451194674998778e-01   4.0275475866622651e-01   4.0378893852934414e+00   7.7576104744765861e-01   2.3261405345222300e-01   1.2255868158623635e-01   1.7010253389761895e-01   1.2584321083180035e+00   6.8080058377713915e-01   2.2182090600142619e+00   2.7774937450556529e+00   1.7787666386790779e-01   2.0377654808630061e+00   2.0110261219541683e+00   1.6662078156401811e-01   1.3467815607316636e-01   7.1852435052617447e-01   1.4834032965638505e-01   2.9264471523693549e+00   3.0388623264498409e+00   2.0890046256074930e+00   1.9444771019903198e+00   2.3128424305705888e+00   1.4296906871093520e+00   2.3003154296547077e+00   5.8279079881930718e-01   4.5507996348387136e-01   2.3931885346465132e+00   8.9333180962688358e-02   3.4360599376445977e+00   2.1452320474942135e+00   3.2910410660476201e+00   4.9800974530153641e-02   1.5961111981393952e-02   6.2499056260059838e-01   3.2153856684449500e+00   2.1692951573875652e+00   2.1095211040919790e+00   3.1447966298695653e+00   1.0473354007723044e+00   2.7623973726199575e+00   2.4598334725685014e-01   2.9396831425142951e+00   1.4364843175377662e+00   1.3000683033265479e+00   1.1976084202804484e+00   1.8117323484671943e-02   4.8670224641626425e-01   2.7355289292653793e+00   1.1430794120927665e+00   2.1085881515452945e-02   3.9964130031330409e+00   3.1287879108710159e+00   2.5778390180257724e+00   1.3127182760305451e+00   3.4635976867082867e+00   3.2504291226440043e+00   2.0644964355319248e-02   3.0964859618307692e+00   1.0943514064763682e+00   1.9348679197506926e+00   1.7571550749281306e+00   4.6206249903638186e-01   4.3868148082696884e-01   1.4386922044016197e+00   1.0670622725400027e+00   1.2241136948492499e+00   8.0196254941740819e-02   1.2479864350349426e+00   5.4187983428130848e-01   1.1580535429494609e+00   1.6762463131155356e+00   1.9278094888163286e+00   2.3203916042715509e+00   3.2707991391308937e+00   2.6564291002811138e+00   2.4490903207736139e+00   3.2404343044533754e+00   2.1834107955630477e+00   2.7468534291933815e+00   8.2210877040829489e-01   2.4960393593062737e+00   2.6107901866183765e+00   3.8008740403388299e+00   7.1216021903065363e-02   4.1101435940630660e-01   3.5167489017020932e+00   2.1881486950492461e+00   2.5553651136725666e+00   3.7127672949833572e+00   3.0271108310903534e+00   1.1210223249663107e+00   3.7006676644663270e+00   1.8616857930751629e+00   1.0989977243224600e+00   1.9088123512479044e-02   3.7419578803164275e+00   1.6824708776886070e-02   2.4456909428900699e+00   2.3621791080197641e+00   2.8130884973474757e+00   2.2178573846907623e+00   1.5549602620132589e-02   6.7081199291039595e-01   6.9384024886141749e-01   3.0191149326299285e+00   2.0780599037771359e+00   3.6995080011506609e-01   1.9326415861778687e+00   1.1666211843511145e+00   5.0583348699429898e-01   5.0274733905677260e-01   4.9107545531570646e-01   7.1507771024508038e-01   2.8735928349132611e+00   1.6160805233072732e-02   2.3976470202595270e+00   3.1901115361321057e+00   4.0328828875251421e-01   4.1159495668693680e-01   4.0408432840634639e-01   2.7906743554647162e-01   2.8810236346873846e-01   3.7690213500748365e-01   4.0526030402959257e-01   4.0700969457259772e-01   1.7337974498791378e+00   3.7289580277833168e-01   1.1668103781563510e+00   1.6274014424557042e+00   1.0294191752441317e+00   1.1806053399267393e+00   1.4856796610123300e+00   1.1834018474136661e+00   8.3933058555675322e-01   1.3977448840838764e+00   5.7351376785017771e-01   1.5334548407237786e-01   1.8644424840643961e+00   4.1533820501588875e-01   1.8855811069366199e-01   2.4635637611486221e+00   1.8678104517297460e+00   6.5928615742219387e-01   2.3956961354448789e+00   4.1959070286911593e-01   2.8272531161191781e+00   1.9978437032368707e-02   3.7528673227035947e-01   9.7605091433400331e-03   2.3265033052790235e-02   8.1675884357218467e-02   6.0272574974849216e-03   7.6941490794985168e-01   4.3019426888627486e+00   2.5387657497843396e-02   1.0877095662416663e+00   5.3803086235861941e-01   1.1775390336394916e-02   4.1753016550117039e-01   3.6059159083684862e+00   6.0192712616126132e-01   1.2499090029073148e-03   1.9712025461554197e+00   3.4125463812913986e-01   4.6039545216163302e-01   5.4419134608447350e-01   5.5494331153148124e-01   3.6719720918386489e+00   3.5628563626158125e+00   3.8936491701823173e-01   2.5210098970147952e-04   5.3906449752887131e-01   3.0379879225636097e+00   7.2356626117329959e-01   3.1795561913827053e-01   3.7682448453462258e-01   1.7041200975849364e+00   5.7169284891234418e-01   2.9885178374627106e+00   1.0009430567541977e+00   4.5005553657705555e-01   3.4051740155060966e+00   3.8449782402711219e-01   2.5949064862592386e+00   2.5591576009774353e+00   4.8929582454917675e-01   3.2714388690911878e+00   3.2176611909268749e+00   1.0947356507832668e+00   3.2658053017989186e+00   5.5273932989285524e-01   3.6787159440783137e+00   2.4471295196050722e+00   4.2975550913544264e-01   3.4233228211485658e+00   3.7620984973887253e+00   2.5199647556359173e+00   1.8117492416463747e+00   5.2333019936031089e-01   1.8757916018904957e+00   4.2107076247339412e+00   4.4512930432483840e-02   3.7998116369771906e-02   2.2373276828921327e+00   1.7667328189415935e-01   1.5946711181337898e+00   1.4603209623945042e+00   2.8155912189936787e+00   2.8068154236869072e+00   1.7030285622660857e-01   1.5545927394971817e-01   3.3025083168530838e+00   1.9725383565698931e-02   2.4086319399042551e+00   3.3102776105909824e+00   4.5191760548496918e-01   2.3158593708868726e-02   4.3615331489423464e-01   3.0757427046327090e+00   3.6631235028153428e+00   2.6592880979279876e+00   4.0136607537600018e+00   1.2974354997851961e-01   3.5463067560345563e+00   1.5507940309770685e+00   1.2102972550291355e+00   3.0638732565076503e+00   2.9585771199712578e+00   2.0220298074631140e+00   2.0907410115030451e+00   4.0871332515772494e+00   3.7642411221297705e+00   3.4759859846541206e+00   1.8072570609659000e+00   3.6749685650705133e-01   1.3488942674959843e+00   2.9124288956392164e+00   1.7220726684583443e+00   1.8242412812174611e+00   1.6571232373169671e+00   2.4961356129999457e+00   2.5797956970602307e+00   7.4918156951263382e-03   9.8457306091348529e-01   1.1595382129947840e+00   9.3367427000695558e-01   8.8427340274661159e-01   8.8098171540166770e-01   3.5698337108675342e+00   2.5231127898384571e+00   2.4131110149463293e+00   2.5564606286388716e+00   2.4434118601097268e+00   2.3807949052897563e+00   3.7783877361725615e+00   3.6183749209328511e+00   3.5746733022349857e+00   1.3024315951885674e+00   3.0836262196926616e+00   2.8068269656155642e-01   3.3778398645494467e-01   4.4982170961162027e-01   5.3980688282063605e-01   3.7529942489082075e+00   2.6362033875614537e+00   4.2502297009574519e-01   4.2734864884026280e-01   2.2553400421402707e+00   2.3199844100581668e+00   2.0858803281990936e+00   2.1385836650116272e+00   2.3829258625784466e+00   2.0372908579243214e+00   3.6968187428855650e+00   3.2855475314282732e+00   3.4284966887550512e+00   2.5890676290277503e+00   4.7672208060562637e-01   4.9709194619526714e-01   3.8785133049043929e-01   3.8192280490196784e-01   5.8448005835425740e-02   3.4607196458848382e+00   3.3083084351281062e+00   1.9061314399387972e+00   1.9793937753533630e+00   2.9655921188184728e+00   1.3146059398645571e+00   3.6319369950263951e+00   3.8660950159573770e-01   3.2273267980359925e+00   1.7621305129375859e+00   2.7596418662345608e+00   3.2021056011247579e+00   3.1317331048918740e+00   2.8356270452853090e+00   1.6460130408744642e+00   4.1331616009519767e-01   4.0752817077013082e-01   3.8027476142566302e-01   1.5357018152697697e+00   1.4668294054524598e+00   3.7869573280614710e-01   3.6808004256117544e-01   1.6697206346898441e+00   2.2205173227598793e+00   2.7581325266563503e+00   2.1726347050140831e+00   2.5377122465568438e+00   2.5425739379519170e+00   2.9316636511871321e+00   2.2465259785626310e+00   5.0173634104380682e-01   4.7379281812348878e-01   2.0469829452226964e+00   1.9461695001081509e+00   2.0952568208566023e+00   1.9673948958487153e+00   1.5495494695172845e+00   6.7819193887924756e-01   4.8468642352366387e-01   3.4392027544114891e+00   4.6857879557824034e-01   4.9159634382939393e-01   4.9984393642580266e-01   4.2083226397571405e+00   1.5271597858091481e+00   1.3243022000761713e+00   7.5464938152133609e-01   2.7983974961043030e+00   1.6471393323883796e+00   1.7909692009453690e+00   3.4762759318188978e+00   2.9586473146769426e-01   2.7659447184114816e+00   2.4651680149129800e+00   4.4341347968029476e-01   8.6019213355023083e-01   2.8075953790656607e+00   6.7193008694982481e-01   4.1620339357751979e+00   1.6798634888206845e+00   1.5276372588525815e+00   1.1916656502111638e+00   2.5986354645043255e+00   2.8881463397293663e+00   3.8526760897826993e+00   7.9160295050465423e-01   2.7158553901395317e+00   2.7467159214817407e+00   6.6152664467456790e-01   7.2838464587645313e-01   8.4444243732451907e-01   1.4570658971604975e+00   2.4354936566164072e+00   1.7672822991583168e+00   6.8506094396842954e-01   1.3935721499637646e+00   9.3647239072512200e-04   1.7902657356611678e+00   1.4549467236903706e+00   1.3871873207906220e+00   2.3508145446093520e+00   2.2920243189979055e+00   2.3263939908313978e+00   1.2874032469515639e+00   1.8574296157124603e+00   1.4585700819936604e+00   4.3926365045300599e-02   3.4703430407202620e+00   2.8462902225741078e+00   1.4291065365316802e+00   2.0656101793686674e+00   1.8558299554302220e+00   2.2533177487971008e+00   2.2548321879795417e+00   2.2138440699590980e+00   2.9793681870341344e+00   2.9204426709093885e+00   5.4355714580270797e-01   3.6065742694332870e+00   3.3029123136090508e+00   1.6523528943886187e-02   1.9918148573900136e-02   3.0169859149756411e+00   1.3024732822173544e+00   1.5195555246996295e+00   2.0743849381004281e-01   2.6302785502484927e-01   1.3373680130250485e-02   2.5513462769755796e-01   3.9568635380897339e+00   3.8038541896359952e+00   3.0736313153016885e+00   3.7626077960691449e+00   3.7786060211181094e-01   4.2262285901700358e-01   2.7555408497308305e+00   5.7611879690464871e-02   2.0240615430821651e+00   3.2364274031384825e+00   1.0741930850069434e-01   1.4893451386486398e+00   2.3119629645069262e+00   2.6953281127415851e-01   3.4557954515600682e-02   2.7181900255516278e-01   1.2692317127929861e-01   1.2659539688849544e+00   1.5262474647058752e+00   1.2391215027731492e-01   1.0948928214757746e-03   3.7462647890104726e+00   1.5860933266810765e-02   8.5463974215053340e-01   3.4364038727847741e+00   2.8745724476982315e+00   1.3831178863986580e+00   6.9015764654645617e-01   3.0116884458637561e+00   2.7989501704604862e+00   2.7658726505401350e+00   2.6281262177391826e+00   3.1751823035120950e+00   3.5219323627909733e+00   3.5387413117738227e+00   2.8962694151849661e-01   2.8156084052511363e+00   1.8822530611080433e-02   3.1163820955842370e-01   9.8318607887346832e-01   2.9132540090315842e+00   1.1249609208147926e+00   1.7154817855801259e+00   3.6997263861724266e+00   1.9588267941333368e-02   3.5811577141570980e+00   3.4018972792748494e+00   3.7850715028152204e+00   1.1816119025362775e+00   4.3492307844000050e-01   3.7651695684767592e+00   3.4564728356625687e+00   3.5892199303602439e+00   1.5101461937024727e-02   4.2721920826533066e-01   2.0571289088295908e+00   4.3037821019722822e-01   9.5210864215880220e-01   2.3268628230760493e+00   8.1586658615785002e-01   2.6503159826091141e+00   7.2466593500361398e-01   2.2739937821913348e-02   4.4313526478999826e-01   2.5615583434309301e-02   1.6516887267070823e-01   2.0206357250130105e-01   1.6162062383594193e+00   2.4335367247175867e-02   5.1373776378252800e-01   4.0117086956297920e-01   8.9697989523479005e-01   4.3667127710872328e-01   4.4366536090139697e-01   1.5832774330945154e+00   3.4394447122223100e+00   3.5005924855050687e+00   2.3562570187929248e+00   2.1359386366989703e+00   2.2599316795355699e+00   2.5292224558060482e-02   2.8602079245730891e+00   3.5729356781766741e+00   9.4551940005758817e-01   3.6175038497842733e+00   2.1830009305176525e+00   2.3465011620364113e+00   2.5526898703331344e+00   3.6128287154918461e+00   3.9029737314940842e+00   2.3328949773054976e-02   1.5692342054221780e+00   4.1275056442828313e-02   3.4058607383137609e+00   2.6061634996259571e+00   2.6037037531956182e+00   4.6457067427144827e-01   1.4823936084238418e+00   1.7246335448402732e+00   2.6281924298904507e+00   4.9220313525488874e-01   8.3437086024521889e-01   1.3552630414563500e+00   3.4804473920702867e+00   2.0242039176191642e+00   3.2409351893289031e+00   4.3977056706463866e+00   2.1241469989913360e+00   2.9665424717233089e+00   2.6801321689164692e+00   3.7211703553076685e+00   4.0994227303241022e+00   6.8754347456976328e-01   9.5703964661243712e-01   1.0571996625772719e+00   3.3917788618006934e+00   4.0969832587668717e+00   7.8944886076114085e-01   1.8228978962239610e+00   1.2673105048446629e+00   4.2895243002459900e+00   1.2676744615794278e+00   2.5940985388041917e+00   4.2307617787285867e+00   2.5799725004701743e+00   2.0796167006976876e+00   2.2759764429809417e+00   1.8499825298482948e+00   2.3520031071589136e+00   1.9700066856665628e+00   7.1726786265152187e-01   1.5473423958497472e+00   3.6812125184570368e+00   6.3233246498194273e-01   2.0855567358977662e+00   5.9934189493574479e-02   1.9282177203727306e+00   4.6013876917518182e-02   5.0595399660869889e-01   3.3250755963074571e-02   5.3809430838083760e-01   5.6607778988395230e-01   4.1559620148718768e+00   2.4960776175786044e+00   2.4931283902600514e+00   4.1709926273933373e+00   3.5497606849229824e-01   3.5527982786327883e-01   2.4103298995457223e+00   2.5656325297218805e+00   1.7593962120919153e+00   3.6019910025480537e+00   4.1569113330149082e-01   4.5046843205268766e-01   4.6335281561893438e-01   4.1941210835784598e-01   4.2700000495586493e-01   1.9839151367246910e+00   1.4757620633328430e+00   4.1956850441211913e-01   7.7271984543476957e-01   6.4136297539076448e-01   3.2915837714538680e+00   1.3564691830100346e+00   6.5202237175155642e-01   1.6457535258960840e+00   2.0277427252817617e+00   1.1281365109289840e+00   2.2352267515093072e+00   1.5888515843758300e+00   1.2337161515305963e+00   1.3131007258672787e+00   2.8698199148370569e+00   3.7408891816022685e+00   1.4444069375312614e+00   3.6773388659618709e+00   3.8941370221189020e+00   1.3838078418018591e+00   1.6631289014861772e+00   1.5385882652862979e+00   1.5088225696034729e+00   2.9934267769764156e+00   3.2916388969615098e+00   3.3108193265999937e+00   3.5658756026358271e+00   3.7020547884263362e+00   3.3183637545543205e+00   2.8461079221315249e+00   1.5738128108897143e-01   2.7235294481896912e+00   1.5478504449410639e+00   1.8630092825725320e+00   1.3507617817969235e+00   1.2418132420412555e+00   2.6290849768448865e+00   4.0886739572718434e-01   3.7764674405049199e+00   3.9738658342101468e-01   4.1726945536599441e-01   8.4669944738247804e-01   1.3625831899925603e-01   2.9311733940153539e+00   3.6923916681141882e+00   3.8430239741942679e-01   6.3694975578545077e-01   5.7432821273969203e-01   4.1788311576786041e+00   4.192716890984