<?xml version="1.0"?>
<VTKFile type="UnstructuredGrid"  version="0.1"  >
<UnstructuredGrid>
<Piece  NumberOfPoints="747" NumberOfCells="1165">
<Points>
<DataArray  type="Float64"  NumberOfComponents="3"  format="ascii">56818.26305072499 -2506106.549119427 0  42243.18265024776 -2506857.639328673 0  29021.82503270428 -2504261.924403077 0  16550.12421826219 -2499855.084024415 0  4655.032296222308 -2495697.422200306 0  -7261.504300492456 -2494323.621393709 0  -18625.22209185599 -2493319.244519799 0  -29276.70419068305 -2491316.102597814 0  -39371.58555411869 -2489334.610554085 0  -48872.2887625367 -2487148.664179707 0  -56975.1983834749 -2482507.606906727 0  -64856.00389190487 -2478322.793323702 0  -73044.09528138349 -2475914.932075506 0  -80956.89453806292 -2474104.027428716 0  -88297.01099239565 -2471721.028140273 0  -95122.34251075231 -2468979.68610345 0  -102033.0976717825 -2467743.453790383 0  -108667.8585333195 -2467170.433637599 0  -114915.9932325953 -2465984.168528114 0  -120845.1804641294 -2464950.543945178 0  -126578.8706923529 -2464806.636550912 0  -131905.6385080613 -2465871.725308503 0  -137064.687279085 -2466513.84235653 0  -141931.6894689468 -2467114.408289441 0  -146558.2518132151 -2467929.3528441 0  -150981.1782706213 -2468467.119438711 0  -155134.7485423184 -2469150.351715567 0  -159045.2990449393 -2470116.702174883 0  -162783.5633652424 -2470995.874606837 0  -166363.671458142 -2471566.36883454 0  -169791.2094945778 -2472089.92531744 0  -173066.7170363216 -2472372.644023074 0  -176180.8272511644 -2472318.589143077 0  -179127.4549433015 -2471957.228690146 0  -181904.9538427488 -2471408.024018189 0  -184523.0000848745 -2470783.818157519 0  -187005.1824092157 -2470191.610932166 0  -189371.4710935979 -2469697.441393066 0  -191637.2486669229 -2469286.956885205 0  -193813.7840475813 -2468932.72635197 0  -195894.9751436561 -2468622.32397195 0  -197860.5122662469 -2468356.257574914 0  -199699.8496405249 -2468131.239090017 0  -201484.3799547247 -2467852.578310028 0  -203235.1081836333 -2467477.120196301 0  -204148.4039899458 -2468231.328417643 0  -204779.4006070163 -2469477.772737175 0  -206226.3182912302 -2469895.043213626 0  -207209.0484690831 -2471050.353437294 0  -206633.7342709575 -2472198.562901576 0  -206689.2205673746 -2473699.963528 0  -207439.3355646643 -2474578.344737141 0  -208686.077261504 -2475226.075148567 0  -208911.224951669 -2476610.681926033 0  -209786.4032029276 -2477610.304923216 0  -210530.8593792382 -2478701.972600761 0  -211347.3117581898 -2479598.487775704 0  -212436.1994711102 -2480321.158208149 0  -211661.3579813032 -2481227.303558039 0  -212339.4592376566 -2482164.498648201 0  -213368.6786835724 -2482893.361192783 0  -213823.9242874084 -2483849.45466838 0  -213959.3389029546 -2484975.339969706 0  -214654.5105929325 -2485857.893728198 0  -214924.9636302208 -2486897.99052352 0  -215387.1968803907 -2487861.977722809 0  -215850.8935184235 -2488606.845677634 0  -216850.3002300822 -2488718.42607849 0  -217786.1788875306 -2488773.814743428 0  -218655.6596527224 -2488960.510713411 0  -219459.2999881662 -2489050.843080118 0  -220215.8572609511 -2489415.86959818 0  -220949.8949656503 -2489578.990779826 0  -221671.8184129359 -2489638.232601265 0  -222360.8395383537 -2489613.467831609 0  -222996.7344008797 -2489634.843068176 0  -223565.7511683207 -2489892.292788903 0  -224056.7930683517 -2490349.213746534 0  -224487.3350267241 -2490843.9928667 0  -224917.776609416 -2491084.259717198 0  -225385.9512610532 -2490939.6600004 0  -225871.0057115029 -2490692.412192973 0  -226347.6588061106 -2490593.974681439 0  -226807.4764604085 -2490599.669749292 0  -227247.6549526961 -2490611.50259405 0  -227666.4916287626 -2490611.945233863 0  -228063.1258911103 -2490614.649470013 0  -228437.2792766626 -2490619.621715965 0  -228789.0148414041 -2490611.440145575 0  -229118.6979285175 -2490579.661792117 0  -229427.7721220893 -2490551.675512337 0  -229718.2857126026 -2490575.632414152 0  -229992.0195062686 -2490686.778079117 0  -230250.5004979436 -2490869.571547285 0  -230495.0197162354 -2491060.637110347 0  -230726.6693575185 -2491208.220350035 0  -230946.3810285181 -2491273.695406383 0  -231155.1727872346 -2491240.482369016 0  -231354.5763814056 -2491151.916669652 0  -231546.3204437924 -2491058.490694704 0  -231732.1881906295 -2491000.058362073 0  -231914.0081666783 -2491009.477644776 0  -232092.2357485933 -2491100.02032591 0  -232263.9691545902 -2491246.068674924 0  -232425.9547039263 -2491419.407037552 0  -232574.5133449228 -2491597.360932464 0  -232704.8009038861 -2491776.874946281 0  -232810.4395700074 -2491960.360275827 0  -232883.2341085825 -2492150.113137818 0  -232912.9947800571 -2492348.349496039 0  -232888.518304726 -2492556.97189473 0  -232809.3398841225 -2492774.886297886 0  -232684.053466982 -2492998.772055723 0  -232523.4050637269 -2493224.618723386 0  -232341.870709994 -2493446.437774289 0  -232149.8049278373 -2493655.556957558 0  -231926.4623607639 -2493840.270994475 0  -231648.985213168 -2493990.591921999 0  -231333.5089516883 -2494114.232577013 0  -231011.2867655237 -2494226.909041754 0  -230716.5565724511 -2494352.83929517 0  -230448.2156366009 -2494566.308324145 0  -230174.691868224 -2494859.203920859 0  -229854.386277046 -2495099.245907737 0  -229456.0482055206 -2495181.232778375 0  -228998.936468587 -2495162.974046715 0  -228517.5500007842 -2495146.384058104 0  -228039.7566338337 -2495203.170887594 0  -227590.3999753736 -2495397.522350929 0  -227184.981929657 -2495766.19833274 0  -226750.2922870113 -2496024.476637892 0  -226213.5702095754 -2495994.660255382 0  -225600.3011662167 -2496052.877603892 0  -224958.9944484101 -2496261.85032066 0  -224327.7512929673 -2496330.814093316 0  -223631.5812784273 -2496280.649748585 0  -222879.2998883054 -2496301.667794817 0  -222254.9783848506 -2496634.523083093 0  -221626.1319051044 -2497065.090720322 0  -220761.0581340182 -2497211.459477382 0  -219968.5459241767 -2497393.939598728 0  -220203.5455070361 -2497899.480461085 0  -220855.9220298611 -2498603.237242675 0  -221131.2246077028 -2499252.862384938 0  -221774.7122121719 -2499660.862433717 0  -222479.7107982228 -2499760.827055608 0  -223033.1183148655 -2499984.859791101 0  -223490.2596104009 -2500462.200395656 0  -224062.3926326139 -2500600.027660071 0  -224541.1956214423 -2500228.786139573 0  -224949.7350095029 -2499888.083019758 0  -225341.0500730075 -2500225.130315016 0  -225757.1423292761 -2500548.432558256 0  -226180.3939651776 -2500786.080344201 0  -226538.177938963 -2501153.984901021 0  -226773.495284157 -2501569.98568693 0  -227039.0304909855 -2501911.932245616 0  -227468.9595916819 -2502129.814972885 0  -227798.6047508129 -2502389.299855465 0  -227884.9238541838 -2502832.388358992 0  -228126.2989976085 -2503276.196050428 0  -227861.5342855403 -2503623.445554566 0  -227372.9304734626 -2503907.390885711 0  -226957.5853764467 -2504175.647480549 0  -226606.2579015691 -2504483.304832757 0  -226161.0056828749 -2504866.856449728 0  -225815.0711509458 -2505316.314749662 0  -225762.8994468044 -2505806.079859471 0  -225997.7594286802 -2506242.915512673 0  -226398.1360973342 -2506619.148825204 0  -226765.9297719086 -2507036.084494513 0  -226845.4953021393 -2507500.960872594 0  -226465.0153921999 -2507962.631785552 0  -225845.8228635425 -2508243.541008709 0  -225251.6156104354 -2508190.021993677 0  -224690.1793840567 -2507897.641923884 0  -224100.3548492745 -2507553.624348171 0  -223414.5727227449 -2507371.21363621 0  -222654.4265297953 -2507276.075847208 0  -221912.0382560525 -2507297.337862614 0  -221266.9189332082 -2507785.266418245 0  -220681.0921292723 -2508353.609471263 0  -220062.6686429494 -2509000.329523423 0  -219236.8308144344 -2509174.655190252 0  -218255.6568359406 -2509399.603364403 0  -218572.4131759723 -2510066.725015923 0  -218861.5230561548 -2510964.91864626 0  -218883.3556157417 -2511846.204517832 0  -219353.8346553762 -2512525.731451487 0  -219963.2685976659 -2513082.42119797 0  -220488.7752431028 -2513679.96717993 0  -220885.2380172826 -2514382.263808274 0  -220990.1132767769 -2515108.665935786 0  -221485.0382534687 -2515632.998891791 0  -222155.0186764667 -2516036.139659067 0  -222390.5819874348 -2516597.550678985 0  -221683.5075769027 -2517109.541916781 0  -221049.1691573458 -2517587.936233334 0  -220341.3916149238 -2518020.204995572 0  -219495.2331410376 -2518369.688367899 0  -219546.7035698217 -2519131.218151119 0  -219685.2088385221 -2520038.091014113 0  -219723.4857113709 -2520890.499102236 0  -219511.8253665795 -2521706.050384868 0  -218768.9497051224 -2522318.273173176 0  -218062.3835558011 -2522951.471679174 0  -217792.1932780886 -2523832.754628343 0  -217721.1829300973 -2524802.156087346 0  -217105.5823664274 -2525632.89503949 0  -216114.3489158486 -2526130.198485046 0  -215762.8823642595 -2526977.667966621 0  -215624.0210213385 -2528047.606007989 0  -215626.57696477 -2529136.754249504 0  -215068.1955778405 -2530004.876344503 0  -214353.5819060722 -2530902.512838067 0  -213458.5631825881 -2531647.245829566 0  -212582.3066935458 -2532532.655828057 0  -211601.1993616105 -2533281.698502241 0  -210230.8203599756 -2533492.702960313 0  -209359.9819486135 -2532733.353591639 0  -207963.7301089823 -2532402.039407601 0  -207461.9620998055 -2533726.636299287 0  -206743.678788939 -2535012.373417936 0  -207794.6479248811 -2535697.474151645 0  -208706.2824926935 -2536681.47128792 0  -208662.8240783605 -2538140.018106792 0  -209359.9957095342 -2539157.350742796 0  -209716.6789857079 -2540401.743356431 0  -208811.4519281083 -2541468.645140812 0  -209077.7529802741 -2542648.334750617 0  -210420.4603172865 -2542562.067677911 0  -211621.9917404423 -2542541.993928391 0  -212754.33587808 -2543120.703356035 0  -212519.6312691136 -2544241.062718421 0  -213084.8685374894 -2545195.129669076 0  -214049.5779914909 -2545637.606566725 0  -215070.0904746166 -2545977.323497721 0  -215634.1102203288 -2546825.493334641 0  -215621.16885731 -2547930.190942091 0  -214942.2606588054 -2548830.648553029 0  -2
[...]
<CellData  Scalars="f_123"> 
<DataArray  type="Float64"  Name="f_123"  format="ascii">9.8963135820825013e-02   1.0015611938551766e-01   3.9354732481205415e-06   8.6985588662101335e-02   6.2114813860661791e-04   2.6873997824426116e-03   2.6662597509854514e-05   2.8939276108227337e-03   8.5762681179919073e-02   8.8585409596733215e-03   2.1163563486480634e-04   1.0745535307033238e-01   1.0674681287179486e-01   5.5300315591690343e-05   1.0690706716363446e-01   1.7665505573534322e-04   8.9377990073083858e-04   3.5066049042906962e-05   1.0609476491671110e-01   0.0000000000000000e+00   1.0587604030381921e-01   8.7165359619322436e-04   1.0506181928800315e-01   8.7048984923374706e-02   0.0000000000000000e+00   7.5970885940725513e-02   2.2126041610408910e-02   6.8331400243385118e-02   2.0737660825252580e-02   2.6054277152293089e-02   3.3996008666136866e-04   7.3281881965866061e-09   2.5103805294415350e-02   6.7389009083615059e-02   7.1799775068590033e-02   4.6732095148531667e-02   1.1559333941932579e-02   4.8254469775350327e-03   1.2337341464716997e-01   6.7732625283372982e-02   9.6029755959646922e-03   3.6441553797532812e-02   8.2113625019824776e-02   3.9337549829649571e-02   0.0000000000000000e+00   4.2594526452814432e-02   3.5413777744201756e-02   0.0000000000000000e+00   9.2401114634843087e-02   8.7599814513987702e-04   6.3813759904659032e-04   1.0661947149232424e-01   2.1777944264742100e-04   1.0537047838975816e-01   1.0677645737810985e-01   6.5485627135165425e-02   0.0000000000000000e+00   1.0677941212028899e-02   3.0525700721559655e-02   6.1288902064278398e-03   3.2210178130916332e-02   8.4840643457097978e-02   5.6204670953324633e-02   0.0000000000000000e+00   2.3495585775336876e-04   8.6915708703118238e-02   1.0587132075746726e-01   9.0496927645459524e-02   2.5426532068989255e-04   1.0598062004083295e-01   8.8139168230346912e-02   1.0531114534068442e-01   1.0568637273438380e-01   8.1904558598835150e-04   1.5804679770952887e-03   2.8630658731440239e-06   6.4420328811719607e-02   6.9413662532753925e-02   9.1556394260400645e-02   0.0000000000000000e+00   0.0000000000000000e+00   4.6422422685205557e-02   4.6184205307725608e-02   1.3759688892556019e-06   6.8451615041361226e-04   9.0131555744016753e-02   5.0497138272671646e-02   7.7439501506574457e-02   1.0608707219655381e-01   0.0000000000000000e+00   0.0000000000000000e+00   6.6169002653186559e-05   1.0696885071788401e-01   1.6805595193984286e-04   1.0683753881902330e-01   7.6674885324508363e-02   1.0707156464239034e-01   0.0000000000000000e+00   2.5066882936018982e-05   4.5152294045055323e-02   1.0280375468805669e-01   1.0828410723947443e-01   1.0510588474199145e-01   6.7304855734540668e-04   1.4946624117011497e-06   0.0000000000000000e+00   7.7169665444859842e-02   0.0000000000000000e+00   0.0000000000000000e+00   1.0496814812750507e-01   0.0000000000000000e+00   6.1409884716319548e-04   1.2185160881372789e-03   9.6131782093307515e-04   4.7455822119956456e-02   3.7040089735012591e-05   0.0000000000000000e+00   0.0000000000000000e+00   9.7977100759590610e-02   5.2396021916446941e-04   1.0742900416575843e-04   3.8089650621076729e-04   2.9781779968544598e-04   4.3053623942315968e-02   3.3545334370159675e-03   1.6865573843724822e-03   4.4239419534819982e-02   3.7811944607006958e-03   5.8146248395479563e-02   4.1214345878777134e-02   5.4551865301389564e-02   5.5352673405752333e-02   7.1658092340575907e-02   3.0592518580808518e-02   0.0000000000000000e+00   1.0581525746071671e-01   1.0592730401373235e-01   4.9814969938198824e-05   5.1661961606024758e-04   0.0000000000000000e+00   3.5265713322930273e-03   7.2021018799838694e-03   9.8923539590333939e-02   1.9844948022422218e-02   0.0000000000000000e+00   0.0000000000000000e+00   9.7310745360631792e-02   7.0900242912486630e-02   2.7235437580725983e-03   1.0213946225367937e-01   4.4884019433095772e-02   4.0814123097987966e-02   2.3979817631931910e-02   4.7206092346290142e-04   3.1098324493869293e-02   3.5443047383183157e-02   0.0000000000000000e+00   4.7526209915850796e-04   0.0000000000000000e+00   0.0000000000000000e+00   0.0000000000000000e+00   3.8460959419708472e-02   7.2176338339396101e-02   2.4924390142124737e-02   3.2909739336690898e-02   1.0559036626391724e-01   1.6763566271596555e-02   0.0000000000000000e+00   5.4843130344174387e-02   1.3846218514569150e-02   1.0543358052114649e-01   1.0571979456547503e-01   0.0000000000000000e+00   1.1710975929382569e-03   2.8829319112943807e-03   1.2377946366084959e-03   5.0525974263969965e-02   1.1595768883326133e-04   1.6382218697487728e-02   3.4355386173430522e-02   1.1933274698178037e-03   5.8016294223851295e-02   7.0606124001348719e-02   9.5491768949108446e-05   1.0427122431279825e-03   1.0866949052281637e-03   3.4962479815534984e-02   0.0000000000000000e+00   6.0786915136710302e-04   3.4278465657781830e-02   6.8336422126388555e-06   1.7960481636322527e-03   2.4436362413053318e-05   0.0000000000000000e+00   2.2470288530591253e-02   3.8100076184194772e-06   3.9024358530586451e-03   0.0000000000000000e+00   0.0000000000000000e+00   4.1528470326657654e-03   9.8385627236358519e-02   2.0210274319441900e-06   3.3518728994452995e-04   7.1346831708557620e-05   1.1151032937496339e-01   0.0000000000000000e+00   0.0000000000000000e+00   1.7619764350808063e-02   4.3664614323684927e-05   1.6860189826004698e-06   0.0000000000000000e+00   3.0792647575409148e-05   7.8788111412491271e-05   9.8061541479695785e-02   4.9447065746426853e-05   3.0776015174012340e-02   3.5604204280723526e-03   6.9258640818420564e-02   7.2521040494430825e-02   4.2789610126827367e-02   1.0165323751020175e-01   2.1998586182318063e-04   0.0000000000000000e+00   1.0852448008983753e-01   3.6682507101432976e-02   2.6468301511896504e-04   1.0883395784761924e-02   1.0134472171997115e-04   1.3426624893857365e-02   2.0039382522157666e-04   4.5777369329760061e-04   1.0038932739097572e-01   1.5913753657185569e-02   7.2140676472644255e-05   4.6481584916575303e-05   2.1971852341603541e-02   0.0000000000000000e+00   7.5530068633395181e-05   4.8999213640640326e-06   1.0904033377685918e-04   7.3971923266255096e-02   7.7566196152348263e-02   0.0000000000000000e+00   4.7868292093208398e-04   1.0858051153070988e-01   6.5896715913215084e-05   8.5797571508042125e-02   6.2814682931309021e-04   1.6862552743614128e-02   2.0331594105930526e-02   6.9235418122764276e-04   0.0000000000000000e+00   1.6294067264532256e-03   8.9628533298272291e-04   4.8847125227089762e-04   1.1820284046138111e-02   0.0000000000000000e+00   6.1234177608816283e-02   6.5718330467636338e-02   0.0000000000000000e+00   0.0000000000000000e+00   0.0000000000000000e+00   8.7545462511750716e-02   8.7705182204470128e-02   2.4976357452134441e-04   0.0000000000000000e+00   0.0000000000000000e+00   0.0000000000000000e+00   0.0000000000000000e+00   0.0000000000000000e+00   0.0000000000000000e+00   2.3107126934379222e-02   1.9016629425839838e-04   1.4273761221633997e-04   2.4221730224205779e-02   5.7510447237806787e-02   1.2515492977848799e-04   9.9766974574026626e-02   4.7667388691128812e-02   1.0630597458663026e-03   3.4853040151438123e-03   2.3752501112767445e-04   1.0828347539142266e-01   1.4807390974507945e-02   0.0000000000000000e+00   7.6850504935597043e-04   3.0461358799097407e-03   3.1049801362694522e-02   8.5687652867386971e-02   6.8718382368063149e-03   0.0000000000000000e+00   0.0000000000000000e+00   4.5070442725554931e-04   3.6990335127591928e-03   5.8168056662042224e-04   1.5828662539192743e-03   1.2141452482961773e-03   2.4875303306591597e-03   7.8099331203078468e-04   5.7509074891017855e-04   9.7193473674045724e-02   9.6981721521883155e-02   3.1145651007942216e-04   6.5149917491946444e-02   0.0000000000000000e+00   8.1987658221245425e-05   0.0000000000000000e+00   1.0397570392295322e-01   1.0345234390086763e-01   1.0413859582844749e-01   9.5181336726044563e-02   4.0624088303043357e-02   5.6014551414890494e-04   5.4820205666745121e-02   3.5964835744486385e-03   0.0000000000000000e+00   1.0374634369018365e-01   1.0439655305474704e-01   6.1382581741425136e-05   3.5779357413367265e-05   5.6716419232280536e-08   0.0000000000000000e+00   1.0543431504451536e-01   9.3393364823713413e-05   1.0643721293024683e-01   8.3125306798660314e-02   7.3645014516074553e-02   0.0000000000000000e+00   8.3230507060506345e-02   0.0000000000000000e+00   0.0000000000000000e+00   0.0000000000000000e+00   0.0000000000000000e+00   0.0000000000000000e+00   8.6074793264241908e-05   6.5979091006343055e-02   1.0545825352022425e-01   8.0741891333224536e-06   4.5664020750454927e-02   2.5642354332086978e-04   1.0557745439857902e-01   4.9219529076641920e-02   1.0531341432025214e-01   1.1333248715268866e-04   8.6637173833104702e-04   0.0000000000000000e+00   1.3776010960422696e-04   5.8523973870334078e-04   4.1811408306277544e-04   1.0162459037302576e-05   1.0317166862780834e-01   3.0688626557628810e-03   5.1750240150876220e-04   0.0000000000000000e+00   1.0067942939805469e-01   1.9795778958071788e-04   1.0523222064655663e-01   2.1740011602693842e-03   0.0000000000000000e+00   0.0000000000000000e+00   8.1710282957578831e-02   0.0000000000000000e+00   0.0000000000000000e+00   0.0000000000000000e+00   0.0000000000000000e+00   3.4804434518658830e-03   9.0941028474030607e-03   1.0602901528833125e-01   0.0000000000000000e+00   1.0226616346778880e-01   2.7132877942873175e-02   0.0000000000000000e+00   0.0000000000000000e+00   1.0640789780549806e-01   0.0000000000000000e+00   1.0145610052015183e-01   2.6465038537818293e-02   0.0000000000000000e+00   0.0000000000000000e+00   1.6354681372779133e-02   0.0000000000000000e+00   4.0120699117172129e-02   4.2304966867471976e-02   0.0000000000000000e+00   1.8058174782539529e-02   1.9301078832701352e-02   8.3410919639710396e-02   2.0770060174694537e-02   0.0000000000000000e+00   7.5376666418403770e-03   2.4633023559538142e-02   0.0000000000000000e+00   1.6608994808701479e-03   1.0186752689908089e-02   1.3992165620310583e-02   7.4552547821582077e-02   1.0859283126949099e-01   6.9833686116248114e-02   2.5843319079946851e-03   2.9894761902965461e-04   4.2522815283661689e-04   1.2237504473935118e-03   1.6011324448783981e-04   7.1125934714612010e-02   7.5152675955106288e-02   3.5868724066664948e-03   1.2165416284726879e-04   1.3907628083467392e-04   7.1484213823553693e-05   3.7140725136772058e-02   5.6523984327251794e-04   1.9623901854679891e-03   2.6375360547043103e-03   1.0415940546787847e-01   4.8844242426802497e-04   1.0471357601212990e-01   1.8012618087932973e-03   7.4544481554195338e-03   1.9272099580685521e-03   2.6347380927944685e-03   1.1261865933059165e-04   3.5225381821238242e-03   0.0000000000000000e+00   0.0000000000000000e+00   4.9490048988595141e-04   3.1127085486894245e-04   1.6330516940126475e-04   4.3157907669040329e-04   1.6185132619640119e-03   2.0412928215472674e-03   9.5365682276049232e-03   0.0000000000000000e+00   1.0692269771217991e-01   0.0000000000000000e+00   4.1837099054473003e-03   6.5285088137464753e-02   6.2432682435551327e-02   6.7259675739427496e-02   1.4729985217252178e-03   5.0656679221582806e-04   2.6831083663204897e-04   9.1861076998633412e-02   8.6561022653043662e-02   9.4525948546741581e-02   9.5341505963877776e-02   9.5864163178620704e-02   2.7392833603727355e-03   4.2563100404831355e-02   4.6736108539892886e-02   4.1766273572064923e-02   4.5007218038872088e-02   4.7220441592062769e-02   2.7347939978454340e-03   2.1940145961117708e-03   2.6585225529062052e-03   9.1011460720470796e-02   4.5410114763680936e-03   0.0000000000000000e+00   0.0000000000000000e+00   1.0381056248946322e-01   1.0244161736223943e-01   3.1913413868759339e-03   4.0717729416289580e-02   1.0403878993383908e-01   1.0425413468604358e-01   1.3787595251719552e-05   4.8793668844558519e-05   4.9568193655194965e-05   5.4009272982880600e-02   3.8362920602781792e-02   7.9592061333914749e-02   1.9520819323112469e-03   5.3544892274985168e-04   1.7865330324676292e-02   6.0175776480546617e-02   1.0369958437376639e-01   1.0324166772205028e-01   1.0558700227610085e-01   1.0548755204107330e-01   7.4743189169778365e-04   1.8533535423081097e-03   1.0967110011464920e-03   3.6835002118838369e-06   6.5042005328696772e-05   1.0749437597230395e-03   0.0000000000000000e+00   9.1381339474399734e-03   1.0632967833331149e-01   2.5520899358217101e-02   8.8077087012549821e-02   1.0135608197768655e-03   2.7313737084699780e-02   2.9583174709256886e-02   2.0271207610573294e-03   8.1878725985393155e-02   1.0864426169697064e-01   1.0561629598155441e-01   1.0869305746080049e-01   9.4811133798044372e-02   0.0000000000000000e+00   1.0852625738152977e-01   1.0866889688708267e-01   0.0000000000000000e+00   1.4189675198175193e-04   3.5403627520108387e-02   4.7994594629854392e-02   1.1417169812989163e-03   8.6606776675743456e-07   2.9243625683729214e-02   1.6098786565418372e-04   1.0255307700789325e-01   1.0301826688752853e-01   6.1024499218354719e-02   7.9941659906222748e-02   5.5629282434930268e-02   5.8729240235176283e-02   9.3497424637328436e-02   1.1113282381540035e-01   1.1751981021691282e-01   3.0243316753591674e-02   1.0554229130883996e-01   1.0477694937931739e-01   1.0477670922296844e-01   2.9783587025771167e-03   0.0000000000000000e+00   7.9602056709818125e-02   9.3396526404202193e-02   1.0553271026215139e-04   0.0000000000000000e+00   0.0000000000000000e+00   2.6696196984415280e-02   0.0000000000000000e+00   5.2335045932157855e-02   6.2360684441508711e-02   1.0421552909628173e-01   9.4354168513941211e-02   3.3331367864675866e-02   1.0058310636170005e-01   3.1405163988401730e-03   0.0000000000000000e+00   0.0000000000000000e+00   8.7332697150530922e-02   2.1406054706822909e-04   2.3503640552819725e-04   2.1857592781952030e-02   9.8313404522534537e-02   3.6214390259384367e-02   3.6250241060907532e-02   0.0000000000000000e+00   0.0000000000000000e+00   0.0000000000000000e+00   8.8624641701068471e-02   7.4933141738652013e-06   0.0000000000000000e+00   0.0000000000000000e+00   9.1644199728898340e-02   4.1113601906660916e-07   8.2322867950595416e-02   9.1072010136977591e-02   0.0000000000000000e+00   4.7615001533317561e-02   4.8663697768278405e-02   4.6601378408107963e-02   0.0000000000000000e+00   8.1651693919394031e-02   0.0000000000000000e+00   4.5128209913854265e-04   3.1873481614354555e-02   5.1665396728010939e-02   0.0000000000000000e+00   5.9286886355546548e-02   6.4782365632278321e-02   5.1009489571770150e-02   5.3867642077876067e-02   5.4462982604241275e-02   9.0545406514194789e-03   3.3027924283253726e-02   0.0000000000000000e+00   2.8240549475484541e-02   4.8962986112276998e-04   6.7256467012621782e-04   6.0226198233744412e-04   1.3489278465724668e-04   1.0649421908366465e-01   9.2889604030300069e-02   6.0304991308187303e-06   0.0000000000000000e+00   4.0525601235279695e-04   4.7137030628170475e-07   3.7354606658686965e-03   2.8273142799058763e-03   3.0674208762875880e-03   2.9057436211637113e-03   0.0000000000000000e+00   0.0000000000000000e+00   4.2136887022786659e-02   3.8699658396689792e-04   6.2614188529796333e-02   4.3145616548277213e-03   1.9215561634311479e-04   7.4868511313436914e-02   4.3461066256336063e-02   0.0000000000000000e+00   6.7533255688917199e-04   0.0000000000000000e+00   1.2192971190981260e-04   0.0000000000000000e+00   0.0000000000000000e+00   2.1167173492515776e-04   0.0000000000000000e+00   2.7133153147567736e-03   5.7051753562485858e-04   9.0404551599661431e-02   1.9970673116061531e-03   1.3010668390259865e-03   0.0000000000000000e+00   9.4438237521233676e-02   3.4699961688522988e-03   3.6673625493652190e-02   3.7752849145704107e-02   4.2017453522059975e-02   2.4144336970974886e-02   2.0436789871853558e-02   1.7303706924866040e-02   0.0000000000000000e+00   1.7521486083474026e-03   5.6613188129964317e-04   0.0000000000000000e+00   8.7166491438747370e-02   3.2857122915268024e-02   8.3108936789048279e-02   7.9066784172475132e-02   2.5744977906678620e-02   5.6030903472455628e-04   2.3249436836129812e-03   1.5749691902469685e-02   4.2092265893373887e-03   8.0830548626038223e-02   1.0492083398521666e-01   6.3203723491240624e-03   2.5084728556813004e-03   1.3053089771313611e-02   6.4978183205226258e-04   1.0545741136936923e-01   2.9968797540858960e-04   1.0507419367429152e-01   0.0000000000000000e+00   1.4201587703824290e-03   0.0000000000000000e+00   1.2945611286673826e-02   0.0000000000000000e+00   8.7463209276922673e-04   1.0474061278371737e-01   8.0201631807948117e-04   3.4261931597615310e-05   1.3651469220297201e-06   8.9331483514506274e-02   8.3666244256226836e-04   1.0304251497255663e-01   1.0370509206523226e-01   9.3836303781352964e-02   1.0313871944056988e-01   1.0335415030930804e-01   7.3407458870828099e-02   3.3670938206753362e-02   1.7073740467184451e-03   1.5207187215736360e-04   6.0732008846824996e-02   2.3077115167022489e-04   6.6418991337757380e-04   8.9180105154335618e-04   3.3749262873666941e-03   8.7238298800817279e-02   1.4438756149675945e-03   1.4365789564659035e-06   1.1286168565915864e-04   4.2519340189441383e-04   1.9687892088364580e-03   1.9553339850036648e-02   4.9867569400842545e-04   0.0000000000000000e+00   3.9977570235988141e-04   1.6512641663428147e-03   4.2463891486374909e-02   4.1751229671058161e-02   0.0000000000000000e+00   7.7326111064916936e-02   6.9200044157745527e-02   2.2583832164294524e-02   0.0000000000000000e+00   1.0661072452918843e-01   0.0000000000000000e+00   3.1795864399224064e-02   6.3966335549959244e-02   7.7894376269308906e-04   5.7726789481166111e-03   6.0455457716703423e-02   2.8139858950738658e-02   4.1486436454312908e-02   2.4794368805487670e-02   4.2572569002174970e-03   0.0000000000000000e+00   9.8118741463005268e-02   9.9503511259880106e-02   1.8880197628889931e-02   4.6273060590148211e-03   0.0000000000000000e+00   6.8818561015690602e-02   8.3979488968071198e-02   5.9454204906042897e-03   8.5119624881161871e-02   2.6934543916210963e-03   4.5138847380000128e-03   3.3908532942855896e-02   5.8964170038888292e-02   4.8063720320509783e-02   4.7775014571555585e-08   5.2987077829147453e-02   4.5055754091488733e-07   0.0000000000000000e+00   7.1426735202254996e-02   3.3026133516278933e-03   0.0000000000000000e+00   5.9559153230999376e-02   8.1587352127554654e-04   6.4005240821990272e-02   6.0799367610664303e-04   0.0000000000000000e+00   5.4494425111391049e-04   1.0364126119249271e-01   1.0313074469530770e-01   1.2221623673308212e-02   4.8684081264873030e-02   4.7583179224179019e-02   3.4402718562021543e-03   1.0855549930456199e-01   1.0844949819666963e-01   5.2621316196349542e-02   2.1938287703769901e-02   7.1407543196101125e-02   8.7068724901498400e-03   1.0635349485186357e-01   1.0517140729345395e-01   1.0504046805714438e-01   1.0647499634980453e-01   1.0644690557925117e-01   6.4467112963081316e-02   0.0000000000000000e+00   0.0000000000000000e+00   0.0000000000000000e+00   9.6344920284455723e-02   1.6481652501103443e-02   0.0000000000000000e+00   0.0000000000000000e+00   7.3127391191748026e-07   6.4848043262614008e-02   0.0000000000000000e+00   5.7452950211386522e-02   1.6066553815532191e-06   0.0000000000000000e+00   0.0000000000000000e+00   3.2479119252277297e-02   7.2896985287009023e-03   0.0000000000000000e+00   9.2500191459823876e-03   3.2124659870915581e-03   0.0000000000000000e+00   0.0000000000000000e+00   0.0000000000000000e+00   0.0000000000000000e+00   2.9699366717002011e-02   1.3358998306985960e-03   9.4303732015364066e-04   1.6062746959272548e-03   2.7427196318587869e-03   1.9842403014768060e-02   1.7240660265157139e-03   1.1808706685631165e-04   1.7425157680105434e-04   8.0363337380062766e-02   7.6677553918014688e-02   8.2823322580843281e-02   9.0017876616365997e-02   1.5037016469852326e-03   1.0499851099948634e-01   2.5132204041899395e-02   1.0811155270698961e-01   1.0497443642351359e-01   0.0000000000000000e+00   1.7677601293738138e-04   3.2887122720430192e-02   2.6389380402117467e-03   1.0638741218916745e-01   9.9293298800162647e-02   1.0058365980821196e-01   4.3229184923212994e-03   1.255812704703