<?xml version="1.0"?>
<VTKFile type="UnstructuredGrid"  version="0.1"  >
<UnstructuredGrid>
<Piece  NumberOfPoints="4041" NumberOfCells="7528">
<Points>
<DataArray  type="Float64"  NumberOfComponents="3"  format="ascii">56818.26305072499 -2506106.549119427 0  42243.18265024776 -2506857.639328673 0  29021.82503270428 -2504261.924403077 0  16550.12421826219 -2499855.084024415 0  4655.032296222308 -2495697.422200306 0  -7261.504300492456 -2494323.621393709 0  -18625.22209185599 -2493319.244519799 0  -29276.70419068305 -2491316.102597814 0  -39371.58555411869 -2489334.610554085 0  -48872.2887625367 -2487148.664179707 0  -56975.1983834749 -2482507.606906727 0  -64856.00389190487 -2478322.793323702 0  -73044.09528138349 -2475914.932075506 0  -80956.89453806292 -2474104.027428716 0  -88297.01099239565 -2471721.028140273 0  -95122.34251075231 -2468979.68610345 0  -102033.0976717825 -2467743.453790383 0  -108667.8585333195 -2467170.433637599 0  -114915.9932325953 -2465984.168528114 0  -120845.1804641294 -2464950.543945178 0  -126578.8706923529 -2464806.636550912 0  -131905.6385080613 -2465871.725308503 0  -137064.687279085 -2466513.84235653 0  -141931.6894689468 -2467114.408289441 0  -146558.2518132151 -2467929.3528441 0  -150981.1782706213 -2468467.119438711 0  -155134.7485423184 -2469150.351715567 0  -159045.2990449393 -2470116.702174883 0  -162783.5633652424 -2470995.874606837 0  -166363.671458142 -2471566.36883454 0  -169791.2094945778 -2472089.92531744 0  -173066.7170363216 -2472372.644023074 0  -176180.8272511644 -2472318.589143077 0  -179127.4549433015 -2471957.228690146 0  -181904.9538427488 -2471408.024018189 0  -184523.0000848745 -2470783.818157519 0  -187005.1824092157 -2470191.610932166 0  -189371.4710935979 -2469697.441393066 0  -191637.2486669229 -2469286.956885205 0  -193813.7840475813 -2468932.72635197 0  -195894.9751436561 -2468622.32397195 0  -197860.5122662469 -2468356.257574914 0  -199699.8496405249 -2468131.239090017 0  -201484.3799547247 -2467852.578310028 0  -203235.1081836333 -2467477.120196301 0  -204148.4039899458 -2468231.328417643 0  -204779.4006070163 -2469477.772737175 0  -206226.3182912302 -2469895.043213626 0  -207209.0484690831 -2471050.353437294 0  -206633.7342709575 -2472198.562901576 0  -206689.2205673746 -2473699.963528 0  -207439.3355646643 -2474578.344737141 0  -208686.077261504 -2475226.075148567 0  -208911.224951669 -2476610.681926033 0  -209786.4032029276 -2477610.304923216 0  -210530.8593792382 -2478701.972600761 0  -211347.3117581898 -2479598.487775704 0  -212436.1994711102 -2480321.158208149 0  -211661.3579813032 -2481227.303558039 0  -212339.4592376566 -2482164.498648201 0  -213368.6786835724 -2482893.361192783 0  -213823.9242874084 -2483849.45466838 0  -213959.3389029546 -2484975.339969706 0  -214654.5105929325 -2485857.893728198 0  -214924.9636302208 -2486897.99052352 0  -215387.1968803907 -2487861.977722809 0  -215850.8935184235 -2488606.845677634 0  -216850.3002300822 -2488718.42607849 0  -217786.1788875306 -2488773.814743428 0  -218655.6596527224 -2488960.510713411 0  -219459.2999881662 -2489050.843080118 0  -220215.8572609511 -2489415.86959818 0  -220949.8949656503 -2489578.990779826 0  -221671.8184129359 -2489638.232601265 0  -222360.8395383537 -2489613.467831609 0  -222996.7344008797 -2489634.843068176 0  -223565.7511683207 -2489892.292788903 0  -224056.7930683517 -2490349.213746534 0  -224487.3350267241 -2490843.9928667 0  -224917.776609416 -2491084.259717198 0  -225385.9512610532 -2490939.6600004 0  -225871.0057115029 -2490692.412192973 0  -226347.6588061106 -2490593.974681439 0  -226807.4764604085 -2490599.669749292 0  -227247.6549526961 -2490611.50259405 0  -227666.4916287626 -2490611.945233863 0  -228063.1258911103 -2490614.649470013 0  -228437.2792766626 -2490619.621715965 0  -228789.0148414041 -2490611.440145575 0  -229118.6979285175 -2490579.661792117 0  -229427.7721220893 -2490551.675512337 0  -229718.2857126026 -2490575.632414152 0  -229992.0195062686 -2490686.778079117 0  -230250.5004979436 -2490869.571547285 0  -230495.0197162354 -2491060.637110347 0  -230726.6693575185 -2491208.220350035 0  -230946.3810285181 -2491273.695406383 0  -231155.1727872346 -2491240.482369016 0  -231354.5763814056 -2491151.916669652 0  -231546.3204437924 -2491058.490694704 0  -231732.1881906295 -2491000.058362073 0  -231914.0081666783 -2491009.477644776 0  -232092.2357485933 -2491100.02032591 0  -232263.9691545902 -2491246.068674924 0  -232425.9547039263 -2491419.407037552 0  -232574.5133449228 -2491597.360932464 0  -232704.8009038861 -2491776.874946281 0  -232810.4395700074 -2491960.360275827 0  -232883.2341085825 -2492150.113137818 0  -232912.9947800571 -2492348.349496039 0  -232888.518304726 -2492556.97189473 0  -232809.3398841225 -2492774.886297886 0  -232684.053466982 -2492998.772055723 0  -232523.4050637269 -2493224.618723386 0  -232341.870709994 -2493446.437774289 0  -232149.8049278373 -2493655.556957558 0  -231926.4623607639 -2493840.270994475 0  -231648.985213168 -2493990.591921999 0  -231333.5089516883 -2494114.232577013 0  -231011.2867655237 -2494226.909041754 0  -230716.5565724511 -2494352.83929517 0  -230448.2156366009 -2494566.308324145 0  -230174.691868224 -2494859.203920859 0  -229854.386277046 -2495099.245907737 0  -229456.0482055206 -2495181.232778375 0  -228998.936468587 -2495162.974046715 0  -228517.5500007842 -2495146.384058104 0  -228039.7566338337 -2495203.170887594 0  -227590.3999753736 -2495397.522350929 0  -227184.981929657 -2495766.19833274 0  -226750.2922870113 -2496024.476637892 0  -226213.5702095754 -2495994.660255382 0  -225600.3011662167 -2496052.877603892 0  -224958.9944484101 -2496261.85032066 0  -224327.7512929673 -2496330.814093316 0  -223631.5812784273 -2496280.649748585 0  -222879.2998883054 -2496301.667794817 0  -222254.9783848506 -2496634.523083093 0  -221626.1319051044 -2497065.090720322 0  -220761.0581340182 -2497211.459477382 0  -219968.5459241767 -2497393.939598728 0  -220203.5455070361 -2497899.480461085 0  -220855.9220298611 -2498603.237242675 0  -221131.2246077028 -2499252.862384938 0  -221774.7122121719 -2499660.862433717 0  -222479.7107982228 -2499760.827055608 0  -223033.1183148655 -2499984.859791101 0  -223490.2596104009 -2500462.200395656 0  -224062.3926326139 -2500600.027660071 0  -224541.1956214423 -2500228.786139573 0  -224949.7350095029 -2499888.083019758 0  -225341.0500730075 -2500225.130315016 0  -225757.1423292761 -2500548.432558256 0  -226180.3939651776 -2500786.080344201 0  -226538.177938963 -2501153.984901021 0  -226773.495284157 -2501569.98568693 0  -227039.0304909855 -2501911.932245616 0  -227468.9595916819 -2502129.814972885 0  -227798.6047508129 -2502389.299855465 0  -227884.9238541838 -2502832.388358992 0  -228126.2989976085 -2503276.196050428 0  -227861.5342855403 -2503623.445554566 0  -227372.9304734626 -2503907.390885711 0  -226957.5853764467 -2504175.647480549 0  -226606.2579015691 -2504483.304832757 0  -226161.0056828749 -2504866.856449728 0  -225815.0711509458 -2505316.314749662 0  -225762.8994468044 -2505806.079859471 0  -225997.7594286802 -2506242.915512673 0  -226398.1360973342 -2506619.148825204 0  -226765.9297719086 -2507036.084494513 0  -226845.4953021393 -2507500.960872594 0  -226465.0153921999 -2507962.631785552 0  -225845.8228635425 -2508243.541008709 0  -225251.6156104354 -2508190.021993677 0  -224690.1793840567 -2507897.641923884 0  -224100.3548492745 -2507553.624348171 0  -223414.5727227449 -2507371.21363621 0  -222654.4265297953 -2507276.075847208 0  -221912.0382560525 -2507297.337862614 0  -221266.9189332082 -2507785.266418245 0  -220681.0921292723 -2508353.609471263 0  -220062.6686429494 -2509000.329523423 0  -219236.8308144344 -2509174.655190252 0  -218255.6568359406 -2509399.603364403 0  -218572.4131759723 -2510066.725015923 0  -218861.5230561548 -2510964.91864626 0  -218883.3556157417 -2511846.204517832 0  -219353.8346553762 -2512525.731451487 0  -219963.2685976659 -2513082.42119797 0  -220488.7752431028 -2513679.96717993 0  -220885.2380172826 -2514382.263808274 0  -220990.1132767769 -2515108.665935786 0  -221485.0382534687 -2515632.998891791 0  -222155.0186764667 -2516036.139659067 0  -222390.5819874348 -2516597.550678985 0  -221683.5075769027 -2517109.541916781 0  -221049.1691573458 -2517587.936233334 0  -220341.3916149238 -2518020.204995572 0  -219495.2331410376 -2518369.688367899 0  -219546.7035698217 -2519131.218151119 0  -219685.2088385221 -2520038.091014113 0  -219723.4857113709 -2520890.499102236 0  -219511.8253665795 -2521706.050384868 0  -218768.9497051224 -2522318.273173176 0  -218062.3835558011 -2522951.471679174 0  -217792.1932780886 -2523832.754628343 0  -217721.1829300973 -2524802.156087346 0  -217105.5823664274 -2525632.89503949 0  -216114.3489158486 -2526130.198485046 0  -215762.8823642595 -2526977.667966621 0  -215624.0210213385 -2528047.606007989 0  -215626.57696477 -2529136.754249504 0  -215068.1955778405 -2530004.876344503 0  -214353.5819060722 -2530902.512838067 0  -213458.5631825881 -2531647.245829566 0  -212582.3066935458 -2532532.655828057 0  -211601.1993616105 -2533281.698502241 0  -210230.8203599756 -2533492.702960313 0  -209359.9819486135 -2532733.353591639 0  -207963.7301089823 -2532402.039407601 0  -207461.9620998055 -2533726.636299287 0  -206743.678788939 -2535012.373417936 0  -207794.6479248811 -2535697.474151645 0  -208706.2824926935 -2536681.47128792 0  -208662.8240783605 -2538140.018106792 0  -209359.9957095342 -2539157.350742796 0  -209716.6789857079 -2540401.743356431 0  -208811.4519281083 -2541468.645140812 0  -209077.7529802741 -2542648.334750617 0  -210420.4603172865 -2542562.067677911 0  -211621.9917404423 -2542541.993928391 0  -212754.33587808 -2543120.703356035 0  -212519.6312691136 -2544241.062718421 0  -213084.8685374894 -2545195.129669076 0  -214049.5779914909 -2545637.606566725 0  -215070.0904746166 -2545977.323497721 0  -215634.1102203288 -2546825.493334641 0  -215621.16885731 -2547930.190942091 0  -214942.2606588054 -2548830.648553029 0  -
[...]
<CellData  Scalars="f_285"> 
<DataArray  type="Float64"  Name="f_285"  format="ascii">1.3145239760173713e+03   2.4952047523220635e+03   1.0301495879273289e+03   1.0270612389177522e+03   1.4851785951894171e+03   1.4759585238810776e+03   9.4058483416687682e+02   4.4271169195564789e+02   9.3672594040196213e+02   4.1050412017518101e+02   9.0224678033152145e+02   3.9183251174421304e+02   3.7508929792578664e+02   3.6027843009932536e+02   5.8552175564142908e+02   7.7102327311693170e+02   6.6184708252465941e+02   6.6966152414097724e+02   7.5336807965916012e+02   5.6449631456534144e+02   5.2624707012249803e+02   3.1210306778843983e+02   3.5549689401947950e+02   8.2908216616945936e+02   4.8156153878274711e+02   8.4246271429537114e+02   4.9525350991920976e+02   8.0921610259777151e+02   2.3590531657763026e+03   2.3641634326663757e+03   1.0078443549726353e+03   4.4696573529983300e+02   5.1519580551461058e+02   5.1299932403211221e+02   5.1050238136986866e+02   8.2310005521991911e+02   6.3309741580486775e+02   4.0690711626637290e+02   6.8952024994666431e+02   5.1556714554956375e+02   1.0690560527789148e+03   5.3392671596702030e+02   4.1274033039186929e+02   1.0114379339217053e+03   6.9531713257385240e+02   4.3246508098252525e+02   4.3749561973399670e+02   3.5144231994242455e+02   7.5175064148906802e+02   6.7821137799855796e+02   6.3502784199263908e+02   6.3270297675799122e+02   6.1502983218309930e+02   3.7915362639467401e+02   4.3649028914789170e+02   9.0874197745456809e+02   3.1469796333669137e+02   6.6207124116495163e+02   6.7638426469131491e+02   6.4667184180709262e+02   7.2752191865408452e+02   4.9470575412562437e+02   4.8607335294185395e+02   1.0623125308524398e+02   3.8496181912060672e+02   1.9622631427780739e+03   1.9842954682483382e+03   3.9607638668346948e+02   1.0409293825307718e+03   4.1991122627602476e+02   4.1804841110859292e+02   4.3813128039395542e+02   2.3377104155820216e+03   8.1250119469137326e+02   2.3572720364928173e+02   4.0445599659301172e+02   3.6943437529913450e+02   3.7980551034252676e+02   1.8061143034398497e+03   4.8087061874358699e+02   3.8958079394550361e+02   3.9491638992201911e+02   3.7245669962523436e+02   5.4220559020702456e+02   5.5266924404091583e+02   4.7165749434093055e+02   1.0426773411810616e+03   1.4904349674512905e+03   5.2975057447028848e+02   3.3561305823027180e+02   1.1874305737145696e+03   1.2006755662366070e+03   4.5817859994846589e+02   3.6566206402075267e+02   3.3841842467198478e+02   4.4463636935081240e+02   9.5039319216474780e+02   4.4226120602387726e+02   2.1775545496396464e+02   3.9847828366062885e+02   5.9638764828393312e+02   5.2052662373502460e+02   5.3083615748767193e+02   5.8711071806530163e+02   4.0939017881318830e+02   4.2943395837740354e+02   5.0703658908690676e+02   5.2917796811977882e+02   4.8767568225661194e+02   5.5752121774501893e+02   6.4515172437207980e+02   1.0329225139648975e+03   1.0202804552530966e+03   6.6113156714231559e+02   1.3971992061492610e+03   6.4382041460400706e+02   8.1560293027223975e+02   8.2265887927416327e+02   4.6075968696157054e+02   4.7944609786922467e+02   5.4890214483826139e+02   6.7604931644383680e+02   6.7847769508754072e+02   4.9981639627619472e+02   8.6883370818103538e+02   4.3860996713915483e+02   8.5859758360586022e+02   3.7466831914600101e+02   5.5598486283260763e+02   5.5518934820496247e+02   7.6710613602314606e+02   7.6419853321660571e+02   1.0749291738424859e+03   7.2566481162376613e+02   5.5085348245338719e+02   5.0694718214799093e+02   5.3786681431410454e+02   6.6787635141550675e+02   6.6043848484444879e+02   2.0985281157157019e+03   9.3923136893653236e+02   9.4517145896959323e+02   8.6829873043481803e+02   7.6430599343200959e+02   1.9297369163865581e+03   6.1946065928925100e+02   6.0086081759850549e+02   3.8835866202645462e+02   4.8364155323986927e+02   6.2229526307178025e+02   1.0816178174365837e+03   1.5030364099756694e+03   1.4405682268376111e+02   1.5208711939451510e+02   3.5993138260783314e+02   1.0759031089152377e+03   4.0050416638360360e+02   9.1822926599378184e+02   1.9680529103501176e+03   1.9376899094750061e+03   7.5673627243742169e+02   5.8026910404478713e+02   7.6307893155758984e+02   7.1572311011499153e+02   8.8996075500175812e+02   5.7532560571244062e+02   5.8680158951563385e+02   4.7194389243443413e+02   4.7791978722961721e+02   3.8761034157132053e+02   1.5977079288012942e+03   5.1624839843766722e+02   5.3484525212852145e+02   1.6043488190325979e+03   1.8054216988424355e+03   1.8999111286979823e+03   1.5496905064855225e+03   2.2652880253818239e+02   5.5483686734235789e+02   1.0520728603008843e+03   7.6255971695304709e+02   1.0664286580878832e+03   2.5308945656173182e+02   1.0808698342677085e+03   1.1102350945168332e+03   1.0998667646192739e+03   6.1345983991391836e+02   1.7471570395137230e+03   6.4794533117929404e+02   1.7223232769175202e+03   5.5394359653022389e+02   6.5936689056274747e+02   5.5205390507586765e+02   7.0444381209559106e+02   8.1733272502700743e+02   7.1474784382047926e+02   7.6377852619815667e+02   3.0325930442095023e+02   8.2976094163801781e+02   4.5522284218238497e+02   4.6028651237462975e+02   3.4181873720136866e+02   2.6905752281734328e+02   4.6288501174155215e+02   1.0944401920585235e+03   1.0502557266789483e+03   4.5805252029775659e+02   3.5582445994301406e+02   4.9178863146773716e+02   1.5080519709623973e+03   5.6286754475940279e+02   5.2535762760080797e+02   5.9942286877610991e+02   6.0713543534279938e+02   5.1977298965065461e+02   5.3405375822791007e+02   6.7100762592200635e+02   5.3380932189603152e+02   1.3401406840286336e+03   1.3352939933736488e+03   7.2592763459607522e+02   1.3584540761089754e+03   1.8629490161953695e+03   1.8284864516347325e+03   1.9380049225176163e+03   8.3239177207761134e+02   5.2503051514288131e+02   2.5668750885739098e+02   6.1989822287211859e+02   7.2778452756993750e+02   4.3252245783971870e+02   6.9187360896955909e+02   4.1474467390237459e+02   7.3479311407180626e+02   6.0317882512031429e+02   6.0336291146650808e+02   7.1956727153723841e+02   1.4731650519631314e+03   1.4848163988127403e+03   5.4929073119093312e+02   5.4392384906364077e+02   5.6690768785470755e+02   5.6795218386032195e+02   5.9976709730684286e+02   6.3370341292686351e+02   7.9276364677367576e+02   8.1011816514730788e+02   7.8974559109364202e+02   8.0456484753681798e+02   7.7641213597553383e+02   7.9021257712960710e+02   7.5945867456202075e+02   1.7386450658952526e+02   1.7215011954698090e+02   4.7993362928816975e+02   7.3749030248312647e+02   4.6846529451887750e+02   2.8221245665807078e+02   2.8969568005668060e+02   5.4315559594600813e+02   6.8806292443324503e+02   4.7912273276412748e+02   6.8157107428139420e+02   4.8141964812522247e+02   8.6456115090673268e+02   1.4559288688881154e+03   1.3903212271411153e+03   1.0285390288032038e+03   1.2385049285331040e+03   3.9414382566458937e+02   1.0525471077598761e+03   1.2488158325474312e+03   2.3255806612076258e+03   3.8469452799639419e+02   3.1271837241327199e+02   3.8629449084442410e+02   3.3135558443997610e+02   3.3304484690396998e+02   6.1738509322669620e+02   4.7075883677341636e+02   1.8961900278612438e+02   6.7653490026330621e+02   1.7785537980376009e+02   4.9848510321769982e+02   7.0323383536287315e+02   4.8222642471998665e+02   3.8934633221028867e+02   4.8093231656561852e+02   5.6808997013952819e+02   5.6816462926314705e+02   5.6653908726068232e+02   7.7514058593331902e+02   7.6645442676230891e+02   6.1911159133696447e+02   6.1975154905457055e+02   6.0778048389037701e+02   7.7465336679979487e+02   6.0186102663640827e+02   1.0733406951524914e+03   8.2833821857161104e+02   4.4411412247497663e+02   4.7244479957192135e+02   4.7103474849890301e+02   1.0800887724483800e+03   9.2999968293918960e+02   3.5349762353377992e+02   3.4676405527059865e+02   8.3075238326571446e+02   2.2990246098869875e+03   2.2758869179713356e+03   9.7767920252837791e+02   3.8784461635309481e+02   7.3363870611472919e+02   4.7455402944687381e+02   5.7609250457050211e+02   5.8415005183582525e+02   5.7148812828735572e+02   5.5935608195731595e+02   5.8840053688857017e+02   5.9437718232546126e+02   3.8492521125278074e+02   7.1855087837869394e+02   5.7003376259768720e+02   3.4745192502875420e+02   5.4616435871701606e+02   5.5186930880484351e+02   5.2613829016701993e+02   5.1045647848807835e+02   1.1929673061521110e+03   4.3603039885968337e+02   7.1743635186085749e+02   5.3381172425301929e+02   4.5959881537076205e+02   4.5104846886514883e+02   7.6467605372987225e+02   7.3763461353252433e+02   3.3855767081234052e+02   1.2028439213820075e+03   3.6403702083876965e+02   3.7146285590281445e+02   1.3394560983770866e+03   1.3216458924741371e+03   3.7032598237871616e+02   3.6084462751089052e+02   9.0659738446656831e+02   4.6577637855224481e+02   1.2285420603163313e+03   1.2185206036440680e+02   1.1708509180717743e+02   3.5339442351445712e+02   3.5141053577922111e+02   4.6960474112726030e+02   5.5077525765116593e+02   5.4941131397467382e+02   5.4699161954816589e+02   5.5804497079698751e+02   5.4446688714377933e+02   4.5321301949165473e+02   1.4053528559325096e+03   3.3949159438969139e+02   7.4077539857988575e+02   1.0326228370697056e+03   4.7774747599874280e+02   4.6272850939428906e+02   1.0214816361257516e+03   8.8548389076005651e+02   1.2010310047977268e+03   1.1970773170828900e+03   1.4440915950763542e+02   1.3386790411841582e+02   5.0962187125141435e+02   1.4059942131897660e+03   4.9560214062990053e+02   1.0297798255240202e+03   5.0015897133674338e+02   4.8888310025019848e+02   8.8948655529955704e+02   2.8693937376741513e+02   4.8628938664305838e+02   3.2885295373365551e+02   3.2220707913571277e+02   8.3261042194440870e+02   8.5192826140401678e+02   5.4540593552644043e+02   1.5724102015487888e+03   1.6009402677302890e+03   8.2785870748364368e+02   1.7803939755709268e+03   2.3697782577927342e+02   1.2419219357457616e+03   5.2917344595732243e+02   6.9522986671338003e+02   7.0447262509135066e+02   6.9154521640406188e+02   6.9203701668710278e+02   6.0606077405144026e+02   6.0022861263785433e+02   6.8849040455748832e+02   6.5384395347668942e+02   6.7068294301675587e+02   7.0369084679273999e+02   7.0674209468915080e+02   1.4979954681998656e+03   1.4879440804313454e+03   5.3978630653791652e+02   5.3250302980437743e+02   3.2344096553217696e+02   5.8239583702260541e+02   7.4881212416862581e+02   6.9509453217147359e+02   6.5206616722134686e+02   6.3351995815699854e+02   4.7284686782878038e+02   4.7143938740837234e+02   4.9642345495798031e+02   4.9987608515343675e+02   4.8949468418397936e+02   4.8619498130751185e+02   5.9862390375859559e+02   6.0008630399552646e+02   1.2237387130248881e+03   7.3229976264277968e+02   1.0085867283159392e+03   7.1817805878935997e+02   7.0450637199794710e+02   1.3764363397903614e+03   4.3175950891303989e+02   1.1377819594261200e+03   1.1426519033843783e+03   4.4199159824778542e+02   5.9508546486505622e+02   7.5792917602505679e+02   5.7801491077353035e+02   5.9631082356502475e+02   3.7795714157843065e+02   6.9822583432565830e+02   3.9857308504814284e+02   1.4286785839558188e+03   7.0588010334928765e+02   9.9814177008133561e+02   6.9145394341109500e+02   6.9543740219851406e+02   2.9205311058075915e+02   1.5686711237816476e+03   1.5911961760441652e+03   8.8208604015400442e+02   1.4150283714735717e+03   5.9414164144800134e+02   4.7458232244123076e+02   1.0496326739887902e+03   4.7198233591123687e+02   4.7856922995385253e+02   4.7964497878615748e+02   7.5152700368382523e+02   6.0308267512595251e+02   7.4159827245995984e+02   6.0957587400880902e+02   5.7723516858956509e+02   5.1288284679577032e+02   1.4435379500608160e+03   5.9144614304050106e+02   1.2475309236546204e+03   1.2605100524723330e+03   1.0513763302713733e+03   1.0357097944633017e+03   2.2102165374276110e+03   4.8829482750915662e+02   4.8207697149970215e+02   8.5992605778609152e+02   1.1967513364238789e+03   4.5445833948569896e+02   1.0687848964094783e+03   8.1146024007760548e+02   9.0088825313001269e+02   1.4743163327602715e+03   1.4613660166754289e+03   2.2330235981372243e+03   2.2688826416518386e+03   4.3176507351737030e+02   6.6403399600913292e+02   3.6649946454626564e+02   3.5108319794690681e+02   3.8898308681629067e+02   6.7228671199592384e+02   6.3079815209588571e+02   3.4700135685600378e+02   6.5312680140742827e+02   6.4172829547248386e+02   4.4641057501510147e+02   4.3183851223037789e+02   5.5624564727973734e+02   5.2223917959134519e+02   5.3691175113494319e+02   6.2219010508965573e+02   7.2277755779601875e+02   1.5679545349990090e+03   1.5509324360401606e+03   1.6671104491158408e+03   7.2379759967860605e+02   4.8531693136376168e+02   4.5038040509773089e+02   1.6452277988284336e+03   2.1690546141967138e+02   4.9724795027840059e+02   2.3519681132267024e+02   1.0791077438006507e+03   1.0899671362733507e+03   6.2576267492793556e+02   6.3006531862260931e+02   5.0393438987593163e+02   5.0107864716715443e+02   3.1408310632960291e+02   8.1942004586557391e+02   5.6255553340974143e+02   2.2166237839293180e+02   2.2710975975700256e+02   7.1441047842409000e+02   3.0997237707956316e+02   5.4457910562679854e+02   3.9176949720727430e+02   4.4064222885058598e+02   3.8602058776800322e+02   4.4852247443899375e+02   7.4877989461414302e+02   4.2827288377182816e+02   6.1979511317869185e+02   7.7180123302425795e+02   5.3999523390431079e+02   3.9916598948127694e+02   1.7851117885475021e+03   3.9284234459877587e+02   1.7289153655696250e+03   4.5528207898191442e+02   9.2519322527805571e+02   9.2220429258716831e+02   6.7450050782131211e+02   1.2202664128342517e+03   3.2053667797921167e+02   4.8782589716526229e+02   4.7445559675818691e+02   2.2344018754256899e+02   8.0057340918706268e+02   7.9388623470886182e+02   8.5252320865681725e+02   2.2475105397155787e+02   6.6199772357934523e+02   8.7008020195792596e+02   1.4488426701706076e+03   8.1855434507433256e+02   7.1964742328054626e+02   8.9320746458275732e+02   6.2512958692111988e+02   8.0253339947197321e+02   7.9839293271454835e+02   1.0890537858418722e+03   3.0987369135622396e+02   3.4730345387543196e+02   5.4651502574987137e+02   5.2816929051203931e+02   5.7163345195928332e+02   5.8735082772893065e+02   4.4292057672416456e+02   4.6641243666285993e+02   3.5982347268531561e+02   4.1145225434699910e+02   9.3719689619293399e+02   4.2281103377648867e+02   9.4264113984222092e+02   1.6720076101301097e+03   1.6678983603607758e+03   5.5356074237001258e+02   5.5649496354769326e+02   2.9692753038075426e+02   5.8759896249178666e+02   5.6772380545550561e+02   1.4238733912880898e+03   4.9179351640321846e+02   3.0614703496321954e+02   7.6377018484044447e+02   4.2713250357724871e+02   7.5979878746611803e+02   3.9672349662258807e+02   8.9525151201672713e+02   4.3400991976687203e+02   5.4389462010713100e+02   2.8416023381806303e+02   3.9731025144255966e+02   5.0972242110617697e+02   9.2416546985355842e+02   9.2994896784124489e+02   3.5144938358166030e+02   9.4652480240882915e+02   1.5687006004784889e+03   9.4248912641791856e+02   1.5636303974166533e+03   7.0698125926908517e+02   7.1659573044570027e+02   5.3093655252919473e+02   8.0056076024756919e+02   5.3880429074027234e+02   1.3101888309906728e+03   3.3329751131398314e+02   1.3217026363792324e+03   5.2395704472717307e+02   3.6616068455747239e+02   1.1744528324441419e+03   1.1597551850193681e+03   1.1585277204158010e+03   3.2410307049368862e+02   6.5576976297085764e+02   6.6048243867016083e+02   6.4215103096207895e+02   6.3595811491095401e+02   1.1492420937244353e+03   1.0808451194698300e+03   6.2589361297491348e+02   1.1694471552173636e+03   8.2712119406379350e+02   8.3303201916890771e+02   5.8982223420989044e+02   8.8743685860217079e+02   8.9901474605597832e+02   1.4264036803049335e+03   9.3204549131189628e+02   9.4367732851995265e+02   7.9274530633025063e+02   9.7374394439272760e+02   6.5364003981896599e+02   8.8404658345715370e+02   9.1247949488866868e+02   6.7403044294250344e+02   5.0459038741799526e+02   1.0241313329489890e+03   7.6987663732132114e+02   1.1596304051680320e+03   1.0235583554813046e+03   5.4815400800065265e+02   5.3015297809767344e+02   6.6256993191638549e+02   1.1608750557483800e+03   9.6559003973736378e+02   9.4974814543265165e+02   4.6894847722646296e+02   6.2772876201105021e+02   1.1517289957786293e+03   4.3082429827519974e+02   9.3182158950606015e+02   6.5864031635012134e+02   4.3295356492610694e+02   1.3570950029995120e+03   1.3516088041809721e+03   1.3761794896207923e+03   1.3753172023590953e+03   2.2256587518388615e+03   1.0930497256482809e+03   4.7062971179792214e+02   4.8644647878275310e+02   1.9975642092010362e+03   1.3583921235012847e+03   9.7681717363862322e+02   1.4051745908167588e+03   7.1697792928680474e+02   9.8050343244212718e+02   5.8341381868293774e+02   5.5330711352151991e+02   6.0787769437851921e+02   2.2469037594046340e+03   6.0237396963612082e+02   7.2649048612723550e+02   7.3402518573781549e+02   1.0919155191430277e+03   1.1831618972466590e+03   1.1877028253337212e+03   8.0096246810177627e+02   4.4705599303344201e+02   7.1044091538295856e+02   7.0938393529113034e+02   1.0841599256851480e+03   5.7109280721456355e+02   5.8747458426752905e+02   1.3009285842544139e+03   7.6634436004724569e+02   7.5091967498702661e+02   7.5465014980040314e+02   7.7092181728320566e+02   6.1286983005729587e+02   5.8848278644850302e+02   1.1382822461227938e+03   1.1268607187304558e+03   1.5128074293240538e+03   5.4795310232352847e+02   5.4723494047098461e+02   8.5037157125871533e+02   4.4059386976666690e+02   5.2986498785317758e+02   4.3526611368085190e+02   1.7759336540634811e+03   4.4936277287210572e+02   6.0489770295629501e+02   6.0458541310465500e+02   1.2513959830578940e+03   3.3406324886024100e+02   6.9035853210713935e+02   1.2374449754475320e+03   2.1382250883771867e+03   3.3376015472755489e+02   2.1209972686095812e+03   7.4431158362958206e+02   7.3616993191152085e+02   4.9904050840456148e+02   4.8584101072533122e+02   1.8311930008976210e+03   1.5454619548259582e+03   1.2844091316474457e+03   6.5445962551887033e+02   8.1977590915892381e+02   8.1673234121391374e+02   9.9674635353288863e+02   1.4960344834594057e+03   9.0501212954779078e+02   8.9595704397906843e+02   5.9312948152332376e+02   6.0298746871550088e+02   5.9048351019192467e+02   5.9330796794524463e+02   1.0103105410634432e+03   1.0075383711919574e+03   4.2129247338347864e+02   4.4074809572417712e+02   7.1892473013846654e+02   7.1716743823174284e+02   9.2707034721748153e+02   1.3628998127141140e+03   7.7644777564511639e+02   7.8059615112549898e+02   6.1185739938134816e+02   6.2057454320780619e+02   6.0337423183857084e+02   4.1197626853093180e+02   1.2848753654775487e+03   6.0669693736861518e+02   1.0572861578163083e+03   8.6614859954446501e+02   9.4428870187147925e+02   8.7417218610108171e+02   8.2775298805078296e+02   4.4732317304136768e+02   1.8051010664287519e+03   1.0469616691992239e+03   1.0559969341560475e+03   6.9604534430420938e+02   1.2681615116874459e+03   6.6747184886014588e+02   6.7871688462568068e+02   5.2418856732804340e+02   1.3993828988533555e+03   1.3812367170725561e+03   1.3020460809316116e+03   2.0122404961499492e+03   1.0451587472258234e+03   9.9935270496407418e+02   9.8746998795168463e+02   4.6315286205235009e+02   4.6268573580264842e+02   2.4296049186693490e+03   2.4164412795595922e+03   1.3601258435419306e+03   1.3624032949467698e+03   1.1106912928158740e+03   7.1383648756037701e+02   1.0062650060280566e+03   1.2211612210528915e+03   1.3666450682143206e+03   4.0217479704984402e+02   3.8939261422943832e+02   2.0452282685575774e+03   2.0256393712900997e+03   1.0652413462159143e+03   3.1062755623554818e+02   2.7713815969301947e+02   5.7058123589697209e+02   2.4582618364355420e+02   7.3193734583697278e+02   3.9071503756743357e+02   6.0640835037562806e+02   6.1175638437590806e+02   9.9282471497551842e+02   1.1494028194504299e+03   1.0035419362608304e+03   1.1604118115272297e+03   3.9082661101107129e+02   1.1498143716880802e+03   7.2975230557170380e+02   1.6481741394066398e+02   3.9494619091324194e+02   6.7433406610634040e+02   1.016119221111