<?xml version="1.0"?>
<VTKFile type="UnstructuredGrid"  version="0.1"  >
<UnstructuredGrid>
<Piece  NumberOfPoints="747" NumberOfCells="1165">
<Points>
<DataArray  type="Float64"  NumberOfComponents="3"  format="ascii">56818.26305072499 -2506106.549119427 0  42243.18265024776 -2506857.639328673 0  29021.82503270428 -2504261.924403077 0  16550.12421826219 -2499855.084024415 0  4655.032296222308 -2495697.422200306 0  -7261.504300492456 -2494323.621393709 0  -18625.22209185599 -2493319.244519799 0  -29276.70419068305 -2491316.102597814 0  -39371.58555411869 -2489334.610554085 0  -48872.2887625367 -2487148.664179707 0  -56975.1983834749 -2482507.606906727 0  -64856.00389190487 -2478322.793323702 0  -73044.09528138349 -2475914.932075506 0  -80956.89453806292 -2474104.027428716 0  -88297.01099239565 -2471721.028140273 0  -95122.34251075231 -2468979.68610345 0  -102033.0976717825 -2467743.453790383 0  -108667.8585333195 -2467170.433637599 0  -114915.9932325953 -2465984.168528114 0  -120845.1804641294 -2464950.543945178 0  -126578.8706923529 -2464806.636550912 0  -131905.6385080613 -2465871.725308503 0  -137064.687279085 -2466513.84235653 0  -141931.6894689468 -2467114.408289441 0  -146558.2518132151 -2467929.3528441 0  -150981.1782706213 -2468467.119438711 0  -155134.7485423184 -2469150.351715567 0  -159045.2990449393 -2470116.702174883 0  -162783.5633652424 -2470995.874606837 0  -166363.671458142 -2471566.36883454 0  -169791.2094945778 -2472089.92531744 0  -173066.7170363216 -2472372.644023074 0  -176180.8272511644 -2472318.589143077 0  -179127.4549433015 -2471957.228690146 0  -181904.9538427488 -2471408.024018189 0  -184523.0000848745 -2470783.818157519 0  -187005.1824092157 -2470191.610932166 0  -189371.4710935979 -2469697.441393066 0  -191637.2486669229 -2469286.956885205 0  -193813.7840475813 -2468932.72635197 0  -195894.9751436561 -2468622.32397195 0  -197860.5122662469 -2468356.257574914 0  -199699.8496405249 -2468131.239090017 0  -201484.3799547247 -2467852.578310028 0  -203235.1081836333 -2467477.120196301 0  -204148.4039899458 -2468231.328417643 0  -204779.4006070163 -2469477.772737175 0  -206226.3182912302 -2469895.043213626 0  -207209.0484690831 -2471050.353437294 0  -206633.7342709575 -2472198.562901576 0  -206689.2205673746 -2473699.963528 0  -207439.3355646643 -2474578.344737141 0  -208686.077261504 -2475226.075148567 0  -208911.224951669 -2476610.681926033 0  -209786.4032029276 -2477610.304923216 0  -210530.8593792382 -2478701.972600761 0  -211347.3117581898 -2479598.487775704 0  -212436.1994711102 -2480321.158208149 0  -211661.3579813032 -2481227.303558039 0  -212339.4592376566 -2482164.498648201 0  -213368.6786835724 -2482893.361192783 0  -213823.9242874084 -2483849.45466838 0  -213959.3389029546 -2484975.339969706 0  -214654.5105929325 -2485857.893728198 0  -214924.9636302208 -2486897.99052352 0  -215387.1968803907 -2487861.977722809 0  -215850.8935184235 -2488606.845677634 0  -216850.3002300822 -2488718.42607849 0  -217786.1788875306 -2488773.814743428 0  -218655.6596527224 -2488960.510713411 0  -219459.2999881662 -2489050.843080118 0  -220215.8572609511 -2489415.86959818 0  -220949.8949656503 -2489578.990779826 0  -221671.8184129359 -2489638.232601265 0  -222360.8395383537 -2489613.467831609 0  -222996.7344008797 -2489634.843068176 0  -223565.7511683207 -2489892.292788903 0  -224056.7930683517 -2490349.213746534 0  -224487.3350267241 -2490843.9928667 0  -224917.776609416 -2491084.259717198 0  -225385.9512610532 -2490939.6600004 0  -225871.0057115029 -2490692.412192973 0  -226347.6588061106 -2490593.974681439 0  -226807.4764604085 -2490599.669749292 0  -227247.6549526961 -2490611.50259405 0  -227666.4916287626 -2490611.945233863 0  -228063.1258911103 -2490614.649470013 0  -228437.2792766626 -2490619.621715965 0  -228789.0148414041 -2490611.440145575 0  -229118.6979285175 -2490579.661792117 0  -229427.7721220893 -2490551.675512337 0  -229718.2857126026 -2490575.632414152 0  -229992.0195062686 -2490686.778079117 0  -230250.5004979436 -2490869.571547285 0  -230495.0197162354 -2491060.637110347 0  -230726.6693575185 -2491208.220350035 0  -230946.3810285181 -2491273.695406383 0  -231155.1727872346 -2491240.482369016 0  -231354.5763814056 -2491151.916669652 0  -231546.3204437924 -2491058.490694704 0  -231732.1881906295 -2491000.058362073 0  -231914.0081666783 -2491009.477644776 0  -232092.2357485933 -2491100.02032591 0  -232263.9691545902 -2491246.068674924 0  -232425.9547039263 -2491419.407037552 0  -232574.5133449228 -2491597.360932464 0  -232704.8009038861 -2491776.874946281 0  -232810.4395700074 -2491960.360275827 0  -232883.2341085825 -2492150.113137818 0  -232912.9947800571 -2492348.349496039 0  -232888.518304726 -2492556.97189473 0  -232809.3398841225 -2492774.886297886 0  -232684.053466982 -2492998.772055723 0  -232523.4050637269 -2493224.618723386 0  -232341.870709994 -2493446.437774289 0  -232149.8049278373 -2493655.556957558 0  -231926.4623607639 -2493840.270994475 0  -231648.985213168 -2493990.591921999 0  -231333.5089516883 -2494114.232577013 0  -231011.2867655237 -2494226.909041754 0  -230716.5565724511 -2494352.83929517 0  -230448.2156366009 -2494566.308324145 0  -230174.691868224 -2494859.203920859 0  -229854.386277046 -2495099.245907737 0  -229456.0482055206 -2495181.232778375 0  -228998.936468587 -2495162.974046715 0  -228517.5500007842 -2495146.384058104 0  -228039.7566338337 -2495203.170887594 0  -227590.3999753736 -2495397.522350929 0  -227184.981929657 -2495766.19833274 0  -226750.2922870113 -2496024.476637892 0  -226213.5702095754 -2495994.660255382 0  -225600.3011662167 -2496052.877603892 0  -224958.9944484101 -2496261.85032066 0  -224327.7512929673 -2496330.814093316 0  -223631.5812784273 -2496280.649748585 0  -222879.2998883054 -2496301.667794817 0  -222254.9783848506 -2496634.523083093 0  -221626.1319051044 -2497065.090720322 0  -220761.0581340182 -2497211.459477382 0  -219968.5459241767 -2497393.939598728 0  -220203.5455070361 -2497899.480461085 0  -220855.9220298611 -2498603.237242675 0  -221131.2246077028 -2499252.862384938 0  -221774.7122121719 -2499660.862433717 0  -222479.7107982228 -2499760.827055608 0  -223033.1183148655 -2499984.859791101 0  -223490.2596104009 -2500462.200395656 0  -224062.3926326139 -2500600.027660071 0  -224541.1956214423 -2500228.786139573 0  -224949.7350095029 -2499888.083019758 0  -225341.0500730075 -2500225.130315016 0  -225757.1423292761 -2500548.432558256 0  -226180.3939651776 -2500786.080344201 0  -226538.177938963 -2501153.984901021 0  -226773.495284157 -2501569.98568693 0  -227039.0304909855 -2501911.932245616 0  -227468.9595916819 -2502129.814972885 0  -227798.6047508129 -2502389.299855465 0  -227884.9238541838 -2502832.388358992 0  -228126.2989976085 -2503276.196050428 0  -227861.5342855403 -2503623.445554566 0  -227372.9304734626 -2503907.390885711 0  -226957.5853764467 -2504175.647480549 0  -226606.2579015691 -2504483.304832757 0  -226161.0056828749 -2504866.856449728 0  -225815.0711509458 -2505316.314749662 0  -225762.8994468044 -2505806.079859471 0  -225997.7594286802 -2506242.915512673 0  -226398.1360973342 -2506619.148825204 0  -226765.9297719086 -2507036.084494513 0  -226845.4953021393 -2507500.960872594 0  -226465.0153921999 -2507962.631785552 0  -225845.8228635425 -2508243.541008709 0  -225251.6156104354 -2508190.021993677 0  -224690.1793840567 -2507897.641923884 0  -224100.3548492745 -2507553.624348171 0  -223414.5727227449 -2507371.21363621 0  -222654.4265297953 -2507276.075847208 0  -221912.0382560525 -2507297.337862614 0  -221266.9189332082 -2507785.266418245 0  -220681.0921292723 -2508353.609471263 0  -220062.6686429494 -2509000.329523423 0  -219236.8308144344 -2509174.655190252 0  -218255.6568359406 -2509399.603364403 0  -218572.4131759723 -2510066.725015923 0  -218861.5230561548 -2510964.91864626 0  -218883.3556157417 -2511846.204517832 0  -219353.8346553762 -2512525.731451487 0  -219963.2685976659 -2513082.42119797 0  -220488.7752431028 -2513679.96717993 0  -220885.2380172826 -2514382.263808274 0  -220990.1132767769 -2515108.665935786 0  -221485.0382534687 -2515632.998891791 0  -222155.0186764667 -2516036.139659067 0  -222390.5819874348 -2516597.550678985 0  -221683.5075769027 -2517109.541916781 0  -221049.1691573458 -2517587.936233334 0  -220341.3916149238 -2518020.204995572 0  -219495.2331410376 -2518369.688367899 0  -219546.7035698217 -2519131.218151119 0  -219685.2088385221 -2520038.091014113 0  -219723.4857113709 -2520890.499102236 0  -219511.8253665795 -2521706.050384868 0  -218768.9497051224 -2522318.273173176 0  -218062.3835558011 -2522951.471679174 0  -217792.1932780886 -2523832.754628343 0  -217721.1829300973 -2524802.156087346 0  -217105.5823664274 -2525632.89503949 0  -216114.3489158486 -2526130.198485046 0  -215762.8823642595 -2526977.667966621 0  -215624.0210213385 -2528047.606007989 0  -215626.57696477 -2529136.754249504 0  -215068.1955778405 -2530004.876344503 0  -214353.5819060722 -2530902.512838067 0  -213458.5631825881 -2531647.245829566 0  -212582.3066935458 -2532532.655828057 0  -211601.1993616105 -2533281.698502241 0  -210230.8203599756 -2533492.702960313 0  -209359.9819486135 -2532733.353591639 0  -207963.7301089823 -2532402.039407601 0  -207461.9620998055 -2533726.636299287 0  -206743.678788939 -2535012.373417936 0  -207794.6479248811 -2535697.474151645 0  -208706.2824926935 -2536681.47128792 0  -208662.8240783605 -2538140.018106792 0  -209359.9957095342 -2539157.350742796 0  -209716.6789857079 -2540401.743356431 0  -208811.4519281083 -2541468.645140812 0  -209077.7529802741 -2542648.334750617 0  -210420.4603172865 -2542562.067677911 0  -211621.9917404423 -2542541.993928391 0  -212754.33587808 -2543120.703356035 0  -212519.6312691136 -2544241.062718421 0  -213084.8685374894 -2545195.129669076 0  -214049.5779914909 -2545637.606566725 0  -215070.0904746166 -2545977.323497721 0  -215634.1102203288 -2546825.493334641 0  -215621.16885731 -2547930.190942091 0  -214942.2606588054 -2548830.648553029 0  -2
[...]
<CellData  Scalars="f_15"> 
<DataArray  type="Float64"  Name="f_15"  format="ascii">2.3671208334671189e+02   2.9779862142334702e+02   2.9536591592377744e+02   8.1925931449270820e+01   2.8852372102449118e+02   5.6323443587589782e+02   5.4701554716990529e+02   5.3245310068705567e+02   9.3451577341538766e+01   1.7028783727580742e+02   2.8003486657794213e+02   2.6128335277840387e+02   1.4001493780109814e+02   2.2348081769366547e+02   1.4123862767339241e+02   2.6582823542284780e+02   2.0232014808938376e+02   8.2827822336977974e+01   1.3190824174639329e+02   4.4416246821951518e+02   1.3506627807318526e+02   1.8144395080311429e+02   1.3747779979848633e+02   1.6006698959432106e+02   1.0590361154572099e+02   2.2076744399259934e+02   2.2081846698590206e+02   3.6505414858743575e+02   4.8111639580986019e+02   3.8445793156653372e+02   2.0041918083490566e+02   4.2574212419063247e+02   4.0484449097867304e+02   3.1211861110543265e+02   3.1059026099690124e+02   3.4247271449786194e+02   3.5854676713788012e+02   1.6662786999013269e+02   2.9282184168909794e+02   3.5737201002189494e+02   5.0208955659054800e+02   5.2345235720736105e+02   3.8303069003106918e+02   5.2611061856282845e+02   3.1600946092207147e+02   5.4195637318863282e+02   1.4034508994571607e+02   3.1477812619708271e+02   2.8410650432595065e+02   1.3476042546139689e+02   1.2000567086613387e+02   1.3050397377729638e+02   -3.8151753731147821e+01   1.3854919027192125e+02   1.3075327063085038e+02   9.1539040394410605e+01   1.4574822990155354e+02   4.5962455698300903e+02   3.9492051843102610e+02   3.2717697545977774e+02   2.3648194466645114e+02   3.5586279096513670e+02   5.5463120127081268e+01   4.3092216813451790e+02   2.3038065615743844e+02   3.6401424324313729e+02   1.9877266364249098e+02   4.0252073872904180e+02   2.6512964183791826e+02   1.7424234502435934e+02   2.7160907372123074e+02   1.4876883989739042e+02   1.5364918162414602e+02   3.1745364111173762e+02   3.1310145643102464e+02   4.4420378719605179e+02   3.4769423891292422e+02   3.3424958326241114e+02   3.5164934687990592e+02   2.3772740361252789e+02   2.5559614498272015e+02   9.8275717537511071e+01   6.7715437094929726e+01   2.6372844707747214e+02   2.2809790935577979e+01   3.8822884114178146e+02   8.6189210652490857e+01   3.4704262303637370e+02   1.4119822756271378e+02   2.3336725294045320e+02   -6.4518061793670242e+01   1.3543704434789390e+02   1.3518208862678551e+02   1.0675250474204988e+02   1.3275121360894235e+02   3.5492796462952526e+02   1.2933260462583141e+02   1.3152513924043106e+02   2.3672275151989129e+02   5.4820460857278044e+02   3.2914945290464925e+02   3.0513754362574900e+02   2.9727629162816572e+02   1.6786843063874608e+02   4.1762289606152478e+02   2.6245859568330013e+02   3.2080918639357208e+02   1.1653849333588114e+02   4.0432645840200826e+02   2.9682690965036301e+02   3.7046943963687085e+02   2.1660115852414333e+02   -9.8805141213723246e+01   3.4734143108588557e+02   5.8385954646227810e+02   4.2153941670873866e+02   2.4518810149555935e+02   4.2872836848967665e+02   2.9203413039058103e+02   2.3398697490737882e+02   3.2331977723868840e+02   1.2977288413526205e+02   2.0612765806482349e+02   8.0890323836699096e+01   4.3674804221394436e+02   4.3798370486956162e+02   3.6165588269940025e+02   4.4608225802630659e+02   2.3887988654485403e+02   4.8688927612267548e+02   3.6026961673148571e+02   3.7173804824468982e+02   2.9790384914584052e+02   3.2331339917303791e+02   1.3628948340433851e+02   2.6130188176478566e+02   2.8959681276143101e+02   1.6114118502921298e+02   2.6573299324745585e+02   2.6501855680483436e+02   2.1965680230063683e+02   2.4905319913231469e+02   3.2610628536112512e+02   2.6032885144535277e+02   2.1154504136993222e+02   2.0837839769485606e+02   2.8538277216182320e+02   2.2420187708616899e+02   2.3721580121990661e+02   2.8458061772097437e+02   3.2865744150332529e+02   4.3065597543253580e+02   4.3819445450282018e+02   2.3459143766657149e+02   4.4394588086724474e+02   4.7497657047043572e+02   3.3874962179332351e+02   1.1925503209894846e+02   2.7069100823435730e+02   1.6149568323829658e+02   3.1622413582225784e+02   1.2345770696172289e+02   2.3532827550831900e+02   5.3930149961625523e+02   4.5331307225273707e+02   1.4413647915954544e+02   4.9812075466323682e+02   4.1960512845735377e+02   3.9918918049211487e+02   5.6348847794812752e+02   1.4067279618952350e+02   1.3744851994701705e+02   4.0785343888785206e+02   2.2297220169404397e+02   4.2635206954730381e+02   1.4465949361159866e+02   2.6841915720579243e+02   2.6235839915315938e+02   3.4377536861540221e+02   1.7224153607165414e+02   1.8290421546800786e+02   2.6012359185365597e-02   1.1301798097116347e+02   3.4755954068957476e+02   4.5428455762970992e+02   4.8901776791763911e+02   4.5587342600191755e+02   2.0631947809227609e+02   4.3625773834398274e+02   4.3660937797056562e+02   2.3488679894227946e+02   5.5732957548707975e+02   2.2020784130699440e+02   2.7480745221145867e+02   1.6278290958483362e+02   2.4382311433734594e+02   3.7460677116575403e+02   1.0781209223722072e+02   2.5424118810409652e+02   3.9264366971253162e+02   3.7430786379327037e+02   2.6109914570090575e+02   3.1419299309786550e+02   2.3336873622354202e+02   2.6377932886786783e+02   1.8954010621141228e+02   2.7293120779171551e+02   5.4155821384901901e+02   2.3521251620651540e+02   4.6673788963105852e+02   3.0482426804943890e+02   2.1235336214540038e+02   1.8419153692619076e+02   2.0958396712375321e+02   2.0412023624448460e+02   5.2578934790688095e+02   4.4938405195302448e+02   8.0953234674566716e+01   7.7293676618755654e+01   5.1031073918439552e+02   3.4449128590823148e+02   4.1707573944779597e+02   2.6253242955896468e+02   3.1188377057175796e+02   2.6710124732710335e+02   3.0929236697190510e+02   3.3506478033687461e+02   3.6201227416720843e+02   3.4859614781766101e+02   2.6413903731417719e+02   1.5858877490193103e+02   1.9703973595113902e+02   3.8971010530589956e+02   2.3132958930417317e+02   2.6153692410268593e+02   3.4093566403865759e+02   2.3598271798129579e+02   2.7081723693064328e+02   3.0643004396545462e+02   2.6980482989498665e+02   2.8821572617000743e+02   3.1850030834541207e+02   2.6216302475967876e+02   1.2352399010959839e+02   3.4771504860931935e+02   2.9658966878169997e+02   1.7681788047995573e+02   1.3296838491116449e+02   2.0296417184138832e+02   3.6214573864769380e+02   1.5480001078003346e+02   3.1689143696027594e+02   3.2466231877265545e+02   2.0038998582325749e+02   3.2927878712166070e+01   4.4585616525044588e+02   2.2857976509978539e+02   1.4979228383692760e+02   2.1174560528268725e+02   1.8081364250001852e+02   1.4235171395017031e+02   3.6413791155151648e+02   1.3938632065796139e+02   2.7543872892198908e+02   3.2746546035300190e+02   3.3384901170835474e+02   9.4182856993508921e+01   2.0977128904411302e+02   4.5824731755548305e+02   4.2413556749472309e+02   5.1526637767804959e+02   5.2541485113694955e+02   2.0627844155002288e+02   2.2397762278947727e+02   5.4284797475486903e+02   2.6121692072723630e+02   1.2669044591397446e+02   3.0563706756465444e+02   1.8480782746739223e+02   3.9995978780098687e+02   4.4563416635293407e+01   2.1369267934971575e+02   3.1843102496630047e+02   4.2821589996626483e+02   2.5276294376498993e+02   4.1041685063199179e+02   -1.1267776583786451e+02   5.4499316384522035e+02   1.1009436295659168e+02   3.3418146666302630e+02   4.2766836402580350e+02   1.1248330842349719e+02   4.7897996259242383e+01   4.5183070723602179e+02   2.3971279214459980e+02   2.1951754989228573e+02   1.8740209723342122e+02   3.4007749271233996e+02   2.1843570676668804e+02   1.2246844780023501e+02   1.4219855657101095e+02   1.2841242797712997e+02   3.6516024519791927e+02   3.1072643930064271e+02   2.6284438075670090e+02   1.6217564871125583e+02   3.0056929351360156e+02   2.1011257858567529e+02   1.7381663800523853e+02   1.9247595890041634e+02   2.0371865914812028e+02   2.7787834301655033e+02   2.3541161091063634e+02   3.0653458154935606e+02   4.2821341668146812e+02   2.6648688569287134e+02   2.7885422089805627e+02   2.6370859212326928e+02   3.0810835596966336e+02   3.3898604608292931e+02   3.5512656842388753e+02   2.1905723289915156e+02   1.5948394493540468e+02   5.8934640295316933e+02   1.7970602615826090e+02   1.3175336630550305e+02   2.9582584912003756e+02   2.5935914158041970e+02   1.2521454201309513e+02   1.5134429301594423e+02   -1.1343128485054825e+02   2.5807930422771523e+02   2.4667449461448513e+02   1.8688695508237819e+02   2.1729307790564971e+02   2.4220527548920637e+02   1.3875079747579247e+02   1.7980205446655501e+02   3.7963764695553419e+02   5.4113932659329816e+02   3.4964210833544684e+02   7.3767692024721640e+01   1.4160239519310142e+02   2.6954440132829933e+02   1.8339727060774430e+02   2.2630399867786849e+02   3.1189129171740646e+01   1.7969425724759452e+02   1.7530090487069540e+02   4.8374237697311607e+01   3.7624706649745167e+02   4.9662128469052880e+02   2.5122118885442262e+02   3.7851915745212125e+02   1.5111690310010295e+02   1.7112346766737943e+02   1.5074787609664682e+02   2.7528603620802960e+02   3.2582516294423834e+02   -1.4218749865252190e+02   3.8010203938937445e+02   2.4414118071543206e+02   4.0843628669190377e+02   1.9337855535982743e+02   3.5778572544221350e+02   1.3569243395799623e+02   1.3193067566969455e+02   1.5444607203668895e+02   6.8014170622409367e+01   1.5109855083011917e+02   2.2525970423385087e+02   2.4054724181903487e+02   1.5670951314453657e+02   1.5476824848056586e+02   4.0474771243416279e+02   1.5659984896360334e+02   3.4265044906956115e+02   2.5339385878968017e+02   2.5609349552056563e+02   1.6796241062056276e+02   1.9847882291335094e+02   3.2155902102307454e+02   3.3595288161921275e+02   2.3574792590166430e+02   2.4004312018257247e+02   7.7682312416802702e+01   3.2790403178216468e+02   2.9220008015434092e+02   3.6700164371169240e+02   3.6237808264001603e+02   3.8916665621438699e+02   1.7416962760258471e+02   4.6472665985837091e+02   4.2017761450619196e+02   4.3468047274365222e+02   3.4738240407567594e+02   3.6079393825457726e+02   3.9738019392805751e+02   4.2719657198575527e+02   2.7710348266223951e+02   3.3376748015998555e+02   5.1038033854492420e+02   2.5505687100133193e+02   1.2199893763736753e+02   1.1891927817739817e+02   3.8804704481499243e+02   3.3840114431950627e+02   3.1723723615269705e+02   2.3886666619475798e+02   2.4457312494146171e+02   3.2932063603280091e+02   4.8464293975636878e+02   2.1179125718624545e+02   1.4402354962779935e+02   3.4185788099734123e+02   1.4650779595765789e+02   1.9924408239960175e+02   -2.5923746321997392e+00   4.7060800023993812e+02   2.4269437969551359e+02   2.9410532700032445e+02   4.6354295537322633e+02   1.9470518794139701e+02   2.8024328920382936e+02   4.3685074156826644e+01   8.3772442560128226e+01   3.8920867553345096e+02   3.1251145330781992e+02   3.8005391720234763e+02   4.4583137197184396e+02   4.1304033619700277e+01   2.6981979390756698e+02   1.2888531876025957e+02   1.2063324609721835e+02   5.0851916189461804e+02   3.6179367507308916e+02   3.7314011913128530e+02   3.5369159029155725e+02   4.4122088126855510e+02   2.9517851144216399e+02   9.1566505257551597e+01   2.9265192406815851e+02   2.4971487509265566e+02   4.1691773338006396e+02   3.6661636018727296e+02   4.0961828032475762e+02   2.6107028862408265e+02   2.2158603850552907e+02   3.6828391872320833e+02   7.4268305109260481e+01   1.7314236360554995e+02   3.3999233241295485e+02   3.7605972003783239e+02   3.9530129353823025e+02   3.8484868243783342e+02   1.5254522486053139e+02   5.2930202022944138e+02   3.3710656338469198e+02   2.5353313238934439e+02   1.5265028644972239e+02   1.7435293097729090e+02   4.0668644346996371e+02   7.1342009375056890e+01   1.9380630988803259e+02   1.6454032844295543e+02   1.2753284809860273e+02   -8.6922313110261271e+01   1.1259225222386546e+02   3.6584365078255786e+02   5.1990510164404759e+02   3.5084169134814022e+02   4.3138034513948753e+02   4.3595119361699329e+02   4.0257452794514290e+02   8.5674651541676965e+01   1.2942646810007369e+02   1.3515041925489905e+02   2.2630710294797058e+02   2.7938466387726720e+02   2.5092634471498053e+02   7.3707975186846284e+01   5.0737026896328985e+01   3.6195799088847104e+02   3.8320451325553302e+02   3.0045952163102328e+02   7.5029240047002048e+01   4.4782142795768249e+02   1.3351340485612198e+02   4.4787866938578281e+02   2.6535877844367951e+02   3.2918005210726739e+02   4.3049293049787099e+02   4.3853479067303152e+02   4.6556329224114296e+02   1.4230876147971023e+02   3.1159952199323726e+02   1.4318720285587921e+02   2.9881591138882038e+02   2.6747294804093684e+02   2.0706059683108401e+02   3.1137110976319480e+02   3.0427914657090497e+02   3.6443813648486957e+02   5.2088635107921198e+02   2.0639803097269578e+00   4.2359037246311397e+02   4.6418521454739863e+02   1.2699789217331417e+02   -3.8027667202314191e+01   3.9713600687178121e+02   1.3198056740999849e+02   1.4538948445366844e+02   4.6564242679297604e+02   1.6327224802021630e+02   2.6141602906560627e+02   3.6966521317344740e+02   2.1996753391990313e+02   2.9176946633606480e+02   3.5031059274652580e+02   2.7282238220857062e+02   2.8098007256100186e+02   2.4962161678849213e+02   2.7136432278422956e+02   5.0965387810693363e+02   2.1464798336111355e+02   1.2047333124863445e+02   2.5904038811832328e+02   2.9258095192250772e+02   -5.0210950240868726e+01   2.9272086911514773e+01   3.2666783496553506e+02   2.5088378141693607e+02   5.1015527212041306e+01   9.6354898777897191e+01   1.5133673255864170e+02   2.7647158698744443e+02   5.9748060275824841e+01   2.9336965173138356e+02   5.4838683362437462e+02   4.4643142733204093e+02   4.7345197692964632e+02   2.7305669375275124e+02   4.6826703579431518e+02   4.0020943315204806e+02   1.7813598754794958e+02   2.9812744142177797e+02   4.9209145078056167e+02   5.0936439418487822e+02   1.8965865611357259e+02   1.8745994022922361e+02   1.4013149856749138e+01   1.6490534421752523e+02   2.9360013729345860e+02   1.9103289442771398e+02   1.5334967653710675e+02   1.6186101955476568e+02   3.3762149459982379e+02   1.6362372260876384e+02   1.6951891677461091e+02   1.9055569734656760e+02   3.4133374675128954e+02   3.8735447542999276e+02   4.1245973188005337e+02   2.3463498466364322e+02   3.4702172638297651e+02   1.8219833707007868e+02   1.0560345738154234e+02   1.9593247800220109e+02   9.5123956779309367e+01   2.5265952398103073e+02   1.1106840021765881e+02   1.0484162537965368e+02   1.9066578520729510e+02   9.1621759963838286e+01   8.4482313747251936e+01   5.3153621121689935e+02   1.8657559856700149e+02   4.6929231855796877e+02   2.6108897604822516e+02   2.8734672079170923e+02   1.3172747107687906e+02   1.1355633410283754e+02   2.9094612864869043e+02   2.5722586710955693e+02   3.2889635728818689e+02   2.0827355579844445e+02   2.0110357350893983e+02   8.6352928394576423e+01   2.6022403964949791e+02   2.4628261844791211e+02   3.2709905481041471e+02   4.0856886789579750e+02   3.5789982073403161e+02   2.1756379833408334e+02   2.3283545462830460e+02   2.4823812929750710e+02   1.7108525859684175e+02   5.5006469625178340e+02   5.1371828796933380e+02   3.1502709164063759e+02   1.1746317306059946e+02   2.2269193624300198e+02   2.0211139566352108e+02   1.6342926217059306e+02   2.5840271504577430e+02   2.2245660175617058e+02   4.3224605522912736e+02   2.6341167225536674e+02   2.8966429418640996e+02   3.2401178704157633e+02   1.5172958684032474e+02   1.8795160550756691e+02   2.8126696305063911e+02   4.9230507339650569e+02   5.6987736521978604e+02   2.5325562424408440e+02   3.7794847196881562e+02   5.4922932699793148e+02   4.2770703106569835e+02   4.0237047514279698e+02   3.7666336378483095e+02   3.8390601330442735e+02   3.3354688412253671e+02   3.3345249806161542e+02   2.0451756129803837e+02   3.9355548928621556e+02   3.6876600634906538e+02   1.9873398548270558e+02   2.4741098419065577e+02   4.2982303265872827e+02   2.6677605039680526e+02   1.4056854414269307e+02   2.5627799454043821e+02   2.0218644616789987e+02   3.2206204278120475e+02   4.0066336660843945e+02   3.8120901626819568e+02   3.3455074172506238e+02   1.4682658632835205e+02   -1.7530942813915291e+02   3.5829880671484381e+02   3.5907594592663554e+02   1.1811411579465697e+02   1.6047823769373696e+02   5.3283044590836653e+02   1.4111800467796726e+02   4.5388350233135792e+00   5.3619041709478677e+02   1.1475654065876907e+02   5.2506808797287567e+02   1.5971520317636453e+02   1.8245252006227977e+02   1.4765618195953226e+02   1.4231378324965527e+02   1.9901332483618447e+02   1.8924891146262826e+02   2.5667594767869764e+02   1.4065307164307376e+02   1.6494516481892259e+02   3.2233681774122851e+02   2.4488235439596457e+02   2.2053586309742769e+02   1.7367247419394397e+02   1.8907830159539247e+02   9.6336270611245112e+01   5.7525779721091375e+01   2.9033734363326039e+02   2.0837265913949557e+02   3.7299920702216946e+02   2.1189715564468207e+02   -1.7090774105652443e+02   4.9052290376434104e+02   3.7621069577693362e+02   1.6532753410046422e+02   7.1958538647535448e+01   2.1618881854254874e+02   2.8876369186747445e+02   1.0468296155901169e+02   1.8627374416614256e+02   1.9684779084956756e+02   5.8679061116101752e+02   2.3424117328936006e+02   4.3714698560379765e+02   3.9663042463127579e+02   3.6748100164183415e+02   2.7423270068171394e+02   2.4958447123217314e+02   1.6831084717554234e+02   5.0654202275770933e+02   2.4767365807582661e+02   3.5560133738545699e+02   3.6585074766014748e+02   1.2927185884687941e+02   3.0996267854028099e+02   2.9782955915716661e+02   3.1034965143574090e+02   3.1517072865412428e+02   6.0484933062803151e+01   1.9095243144065856e+02   1.5290236929197897e+02   2.4515852835055335e+02   2.7682786722402295e+02   3.9300917759541016e+02   3.3514739040533010e+02   4.4974377024400138e+02   1.5119796029054336e+02   1.1123163906091570e+02   2.5960713470351914e+02   2.8873853064099603e+02   2.9813707667143422e+02   3.8147563780089280e+02   4.7335176549746166e+02   2.9687460338878458e+02   3.0146153233762197e+02   3.4871171216598088e+02   2.9606085439456092e+02   4.4153651133285621e+01   3.5182571219812098e+02   2.5591830781863618e+02   3.1282214338770291e+02   2.3738293055177914e+02   4.6679331378846518e+02   2.0475243015972069e+02   3.8384870263849058e+02   1.9529966385646733e+02   3.6039122664414401e+02   2.5461458609560572e+02   2.4044729299259083e+02   1.5998288531031355e+02   2.5283271250877323e+02   2.7359728971227133e+02   2.3752391376137132e+02   4.3288923272865128e+02   5.5012965880086563e+02   5.1266878540416599e+02   3.1632137286794551e+02   3.1323173487459957e+02   5.2691474484558319e+02   2.2414710553857125e+02   3.2144535572851066e+02   3.1976754058925508e+02   2.4891878199477196e+02   1.7918310655635923e+02   1.9442176127029620e+02   2.8000178257859409e+02   2.9576929961338681e+02   2.9447496076185973e+02   3.4329785839270721e+02   2.2985827281515765e+02   2.6678303295156059e+02   3.0854586444680285e+02   3.7793494454842607e+02   4.5504935753533636e+02   2.9416332031500212e+02   3.5294539906282694e+02   3.3545512149186169e+02   4.4766943920208325e+02   5.3530781742675731e+02   4.4748441162602904e+02   2.8620787250531106e+02   5.1512571854644352e+02   2.8735787520824221e+02   4.0271592582375786e+02   5.6402885582733256e+02   5.8494428379854376e+01   3.0817671730835167e+02   2.1814468967035884e+02   7.8994499567112825e+01   2.1630012975654228e+02   1.3749771175451266e+02   4.9352705798842135e+02   3.7301020284673359e+02   1.5281652989268304e+02   3.2618548381505229e+02   5.6803106938861083e+02   3.1251905444496975e+02   2.5092390545600722e+02   3.7810470772295218e+02   2.5489443143857423e+02   3.6195388671311332e+02   1.5219614947173994e+02   3.7744371764574987e+02   3.9099954137616839e+02   1.8360320790437288e+02   1.6995811476298030e+02   1.1498529376943755e+02   3.1251106261571374e+02   1.6210789573666625e+02   3.8685842256453179e+02   3.0489542024740604e+02   5.2756421301272314e+02   2.3313055845125896e+02   1.3590619230973178e+02   1.2004494599984449e+02   1.2378671333595081e+02   3.4621977260609970e+02   1.83