<?xml version="1.0"?>
<VTKFile type="UnstructuredGrid"  version="0.1"  >
<UnstructuredGrid>
<Piece  NumberOfPoints="747" NumberOfCells="1165">
<Points>
<DataArray  type="Float64"  NumberOfComponents="3"  format="ascii">56818.26305072499 -2506106.549119427 0  42243.18265024776 -2506857.639328673 0  29021.82503270428 -2504261.924403077 0  16550.12421826219 -2499855.084024415 0  4655.032296222308 -2495697.422200306 0  -7261.504300492456 -2494323.621393709 0  -18625.22209185599 -2493319.244519799 0  -29276.70419068305 -2491316.102597814 0  -39371.58555411869 -2489334.610554085 0  -48872.2887625367 -2487148.664179707 0  -56975.1983834749 -2482507.606906727 0  -64856.00389190487 -2478322.793323702 0  -73044.09528138349 -2475914.932075506 0  -80956.89453806292 -2474104.027428716 0  -88297.01099239565 -2471721.028140273 0  -95122.34251075231 -2468979.68610345 0  -102033.0976717825 -2467743.453790383 0  -108667.8585333195 -2467170.433637599 0  -114915.9932325953 -2465984.168528114 0  -120845.1804641294 -2464950.543945178 0  -126578.8706923529 -2464806.636550912 0  -131905.6385080613 -2465871.725308503 0  -137064.687279085 -2466513.84235653 0  -141931.6894689468 -2467114.408289441 0  -146558.2518132151 -2467929.3528441 0  -150981.1782706213 -2468467.119438711 0  -155134.7485423184 -2469150.351715567 0  -159045.2990449393 -2470116.702174883 0  -162783.5633652424 -2470995.874606837 0  -166363.671458142 -2471566.36883454 0  -169791.2094945778 -2472089.92531744 0  -173066.7170363216 -2472372.644023074 0  -176180.8272511644 -2472318.589143077 0  -179127.4549433015 -2471957.228690146 0  -181904.9538427488 -2471408.024018189 0  -184523.0000848745 -2470783.818157519 0  -187005.1824092157 -2470191.610932166 0  -189371.4710935979 -2469697.441393066 0  -191637.2486669229 -2469286.956885205 0  -193813.7840475813 -2468932.72635197 0  -195894.9751436561 -2468622.32397195 0  -197860.5122662469 -2468356.257574914 0  -199699.8496405249 -2468131.239090017 0  -201484.3799547247 -2467852.578310028 0  -203235.1081836333 -2467477.120196301 0  -204148.4039899458 -2468231.328417643 0  -204779.4006070163 -2469477.772737175 0  -206226.3182912302 -2469895.043213626 0  -207209.0484690831 -2471050.353437294 0  -206633.7342709575 -2472198.562901576 0  -206689.2205673746 -2473699.963528 0  -207439.3355646643 -2474578.344737141 0  -208686.077261504 -2475226.075148567 0  -208911.224951669 -2476610.681926033 0  -209786.4032029276 -2477610.304923216 0  -210530.8593792382 -2478701.972600761 0  -211347.3117581898 -2479598.487775704 0  -212436.1994711102 -2480321.158208149 0  -211661.3579813032 -2481227.303558039 0  -212339.4592376566 -2482164.498648201 0  -213368.6786835724 -2482893.361192783 0  -213823.9242874084 -2483849.45466838 0  -213959.3389029546 -2484975.339969706 0  -214654.5105929325 -2485857.893728198 0  -214924.9636302208 -2486897.99052352 0  -215387.1968803907 -2487861.977722809 0  -215850.8935184235 -2488606.845677634 0  -216850.3002300822 -2488718.42607849 0  -217786.1788875306 -2488773.814743428 0  -218655.6596527224 -2488960.510713411 0  -219459.2999881662 -2489050.843080118 0  -220215.8572609511 -2489415.86959818 0  -220949.8949656503 -2489578.990779826 0  -221671.8184129359 -2489638.232601265 0  -222360.8395383537 -2489613.467831609 0  -222996.7344008797 -2489634.843068176 0  -223565.7511683207 -2489892.292788903 0  -224056.7930683517 -2490349.213746534 0  -224487.3350267241 -2490843.9928667 0  -224917.776609416 -2491084.259717198 0  -225385.9512610532 -2490939.6600004 0  -225871.0057115029 -2490692.412192973 0  -226347.6588061106 -2490593.974681439 0  -226807.4764604085 -2490599.669749292 0  -227247.6549526961 -2490611.50259405 0  -227666.4916287626 -2490611.945233863 0  -228063.1258911103 -2490614.649470013 0  -228437.2792766626 -2490619.621715965 0  -228789.0148414041 -2490611.440145575 0  -229118.6979285175 -2490579.661792117 0  -229427.7721220893 -2490551.675512337 0  -229718.2857126026 -2490575.632414152 0  -229992.0195062686 -2490686.778079117 0  -230250.5004979436 -2490869.571547285 0  -230495.0197162354 -2491060.637110347 0  -230726.6693575185 -2491208.220350035 0  -230946.3810285181 -2491273.695406383 0  -231155.1727872346 -2491240.482369016 0  -231354.5763814056 -2491151.916669652 0  -231546.3204437924 -2491058.490694704 0  -231732.1881906295 -2491000.058362073 0  -231914.0081666783 -2491009.477644776 0  -232092.2357485933 -2491100.02032591 0  -232263.9691545902 -2491246.068674924 0  -232425.9547039263 -2491419.407037552 0  -232574.5133449228 -2491597.360932464 0  -232704.8009038861 -2491776.874946281 0  -232810.4395700074 -2491960.360275827 0  -232883.2341085825 -2492150.113137818 0  -232912.9947800571 -2492348.349496039 0  -232888.518304726 -2492556.97189473 0  -232809.3398841225 -2492774.886297886 0  -232684.053466982 -2492998.772055723 0  -232523.4050637269 -2493224.618723386 0  -232341.870709994 -2493446.437774289 0  -232149.8049278373 -2493655.556957558 0  -231926.4623607639 -2493840.270994475 0  -231648.985213168 -2493990.591921999 0  -231333.5089516883 -2494114.232577013 0  -231011.2867655237 -2494226.909041754 0  -230716.5565724511 -2494352.83929517 0  -230448.2156366009 -2494566.308324145 0  -230174.691868224 -2494859.203920859 0  -229854.386277046 -2495099.245907737 0  -229456.0482055206 -2495181.232778375 0  -228998.936468587 -2495162.974046715 0  -228517.5500007842 -2495146.384058104 0  -228039.7566338337 -2495203.170887594 0  -227590.3999753736 -2495397.522350929 0  -227184.981929657 -2495766.19833274 0  -226750.2922870113 -2496024.476637892 0  -226213.5702095754 -2495994.660255382 0  -225600.3011662167 -2496052.877603892 0  -224958.9944484101 -2496261.85032066 0  -224327.7512929673 -2496330.814093316 0  -223631.5812784273 -2496280.649748585 0  -222879.2998883054 -2496301.667794817 0  -222254.9783848506 -2496634.523083093 0  -221626.1319051044 -2497065.090720322 0  -220761.0581340182 -2497211.459477382 0  -219968.5459241767 -2497393.939598728 0  -220203.5455070361 -2497899.480461085 0  -220855.9220298611 -2498603.237242675 0  -221131.2246077028 -2499252.862384938 0  -221774.7122121719 -2499660.862433717 0  -222479.7107982228 -2499760.827055608 0  -223033.1183148655 -2499984.859791101 0  -223490.2596104009 -2500462.200395656 0  -224062.3926326139 -2500600.027660071 0  -224541.1956214423 -2500228.786139573 0  -224949.7350095029 -2499888.083019758 0  -225341.0500730075 -2500225.130315016 0  -225757.1423292761 -2500548.432558256 0  -226180.3939651776 -2500786.080344201 0  -226538.177938963 -2501153.984901021 0  -226773.495284157 -2501569.98568693 0  -227039.0304909855 -2501911.932245616 0  -227468.9595916819 -2502129.814972885 0  -227798.6047508129 -2502389.299855465 0  -227884.9238541838 -2502832.388358992 0  -228126.2989976085 -2503276.196050428 0  -227861.5342855403 -2503623.445554566 0  -227372.9304734626 -2503907.390885711 0  -226957.5853764467 -2504175.647480549 0  -226606.2579015691 -2504483.304832757 0  -226161.0056828749 -2504866.856449728 0  -225815.0711509458 -2505316.314749662 0  -225762.8994468044 -2505806.079859471 0  -225997.7594286802 -2506242.915512673 0  -226398.1360973342 -2506619.148825204 0  -226765.9297719086 -2507036.084494513 0  -226845.4953021393 -2507500.960872594 0  -226465.0153921999 -2507962.631785552 0  -225845.8228635425 -2508243.541008709 0  -225251.6156104354 -2508190.021993677 0  -224690.1793840567 -2507897.641923884 0  -224100.3548492745 -2507553.624348171 0  -223414.5727227449 -2507371.21363621 0  -222654.4265297953 -2507276.075847208 0  -221912.0382560525 -2507297.337862614 0  -221266.9189332082 -2507785.266418245 0  -220681.0921292723 -2508353.609471263 0  -220062.6686429494 -2509000.329523423 0  -219236.8308144344 -2509174.655190252 0  -218255.6568359406 -2509399.603364403 0  -218572.4131759723 -2510066.725015923 0  -218861.5230561548 -2510964.91864626 0  -218883.3556157417 -2511846.204517832 0  -219353.8346553762 -2512525.731451487 0  -219963.2685976659 -2513082.42119797 0  -220488.7752431028 -2513679.96717993 0  -220885.2380172826 -2514382.263808274 0  -220990.1132767769 -2515108.665935786 0  -221485.0382534687 -2515632.998891791 0  -222155.0186764667 -2516036.139659067 0  -222390.5819874348 -2516597.550678985 0  -221683.5075769027 -2517109.541916781 0  -221049.1691573458 -2517587.936233334 0  -220341.3916149238 -2518020.204995572 0  -219495.2331410376 -2518369.688367899 0  -219546.7035698217 -2519131.218151119 0  -219685.2088385221 -2520038.091014113 0  -219723.4857113709 -2520890.499102236 0  -219511.8253665795 -2521706.050384868 0  -218768.9497051224 -2522318.273173176 0  -218062.3835558011 -2522951.471679174 0  -217792.1932780886 -2523832.754628343 0  -217721.1829300973 -2524802.156087346 0  -217105.5823664274 -2525632.89503949 0  -216114.3489158486 -2526130.198485046 0  -215762.8823642595 -2526977.667966621 0  -215624.0210213385 -2528047.606007989 0  -215626.57696477 -2529136.754249504 0  -215068.1955778405 -2530004.876344503 0  -214353.5819060722 -2530902.512838067 0  -213458.5631825881 -2531647.245829566 0  -212582.3066935458 -2532532.655828057 0  -211601.1993616105 -2533281.698502241 0  -210230.8203599756 -2533492.702960313 0  -209359.9819486135 -2532733.353591639 0  -207963.7301089823 -2532402.039407601 0  -207461.9620998055 -2533726.636299287 0  -206743.678788939 -2535012.373417936 0  -207794.6479248811 -2535697.474151645 0  -208706.2824926935 -2536681.47128792 0  -208662.8240783605 -2538140.018106792 0  -209359.9957095342 -2539157.350742796 0  -209716.6789857079 -2540401.743356431 0  -208811.4519281083 -2541468.645140812 0  -209077.7529802741 -2542648.334750617 0  -210420.4603172865 -2542562.067677911 0  -211621.9917404423 -2542541.993928391 0  -212754.33587808 -2543120.703356035 0  -212519.6312691136 -2544241.062718421 0  -213084.8685374894 -2545195.129669076 0  -214049.5779914909 -2545637.606566725 0  -215070.0904746166 -2545977.323497721 0  -215634.1102203288 -2546825.493334641 0  -215621.16885731 -2547930.190942091 0  -214942.2606588054 -2548830.648553029 0  -2
[...]
<PointData  Scalars="f_35"> 
<DataArray  type="Float64"  Name="f_35"  format="ascii">2.4310719379589759e+03  2.3889818854595478e+03  2.3416219589995171e+03  2.2969981180388090e+03  2.2530176847316689e+03  2.2086373152383335e+03  2.1580459547972864e+03  2.1213752865114316e+03  2.0736765074133050e+03  2.0260566733970056e+03  1.9902378852902027e+03  1.9451328215023484e+03  1.8943616038097505e+03  1.8578582518798121e+03  1.8106198435205924e+03  1.7643596450025007e+03  1.7268343458832792e+03  1.6802983516943927e+03  1.6283910390993105e+03  1.5962030069288201e+03  1.5605194294221048e+03  1.5398528532056710e+03  1.5078910055914866e+03  1.4826417510347883e+03  1.4446394595233176e+03  1.4187287149910387e+03  1.3911884049196203e+03  1.3672115456006418e+03  1.3402095056483392e+03  1.3087886251965192e+03  1.2615844416058801e+03  1.2603539347017909e+03  1.2174087870770118e+03  1.2034710907507888e+03  1.1388329591468801e+03  1.1028340998641929e+03  1.0578315944304156e+03  1.0543898824574239e+03  9.8793935539960069e+02  9.3530980505037382e+02  8.8845518023223349e+02  8.5620704058742092e+02  8.3151572171887892e+02  7.9737813954323826e+02  7.1347506752992217e+02  6.5088991041135853e+02  5.9380323324595531e+02  5.9721718117928913e+02  5.6593596657877094e+02  5.8357162174243672e+02  6.1634194145483639e+02  6.0665992078738691e+02  5.6551191896184901e+02  5.6060929445274962e+02  5.7034514019371761e+02  5.2864405694534616e+02  5.5859305324117099e+02  4.9905798258012425e+02  5.3368169939449785e+02  5.0081447390878446e+02  4.3221289215625438e+02  4.0198218308820293e+02  4.6972652960318362e+02  4.7284640248825036e+02  5.0828346409245376e+02  5.5870666937495662e+02  5.8167909307644561e+02  5.8769635375843995e+02  5.6452778280642542e+02  5.4691290780030943e+02  5.2841557544424938e+02  5.1675131313035183e+02  5.0037426501903724e+02  5.0795856016112378e+02  4.9702491818279282e+02  4.7593681198207094e+02  4.3064827982106283e+02  3.3880609710544309e+02  3.7871976742772119e+02  3.9081855490282243e+02  3.6828390931578531e+02  3.4025327397115859e+02  3.3173975719298312e+02  3.3267848674980951e+02  3.5763800684183605e+02  3.8909058393836563e+02  4.1291635699396750e+02  4.2467727032581672e+02  4.3669394363971014e+02  4.4942015129893633e+02  4.6082849465841406e+02  4.6448667989871802e+02  4.4943576620783136e+02  4.1167263904815456e+02  3.6967170068987895e+02  3.3358125805378450e+02  3.1213615257759454e+02  3.0916364338999716e+02  3.2128578294447311e+02  3.3818036671149133e+02  3.4882760749777043e+02  3.4162159224044734e+02  3.0482065513194516e+02  2.4821834757373605e+02  1.7989770659345018e+02  1.6890661583255869e+02  1.6080707030982887e+02  1.5435589345245450e+02  1.5047221360487990e+02  1.5033896598686354e+02  1.4846343020969061e+02  1.4750077067043910e+02  1.5092397247733959e+02  1.5799986023626224e+02  1.7460911690256103e+02  2.4925724971915270e+02  3.1115863051952471e+02  3.4710108427668473e+02  3.6754749923307128e+02  3.7696031647066945e+02  3.7675546438291246e+02  3.8039076049987386e+02  4.1198158990220338e+02  4.5265925288402235e+02  4.3762413578917494e+02  4.0175321115889665e+02  3.7641871124582741e+02  3.5289971595473122e+02  3.6140319295218939e+02  3.8717676311870503e+02  3.9349705145188642e+02  4.1761280293007206e+02  4.2964007558997451e+02  4.0927649124701668e+02  3.8794546102837046e+02  3.9746712554839917e+02  4.2779227378453550e+02  4.1414601840672231e+02  4.5022944885202747e+02  5.1603008234282333e+02  5.1125846344754160e+02  5.2076418047161167e+02  4.8601720063658854e+02  4.4747080998851311e+02  4.4126359000214114e+02  4.2627573157422358e+02  4.0588890280957150e+02  3.9312198034083099e+02  3.8939477398136921e+02  3.6007551630337696e+02  3.3366628792216147e+02  3.2474193605094746e+02  3.0847392750178233e+02  3.1521276347030664e+02  2.9596979025092554e+02  2.7179428356936637e+02  3.0188835938779499e+02  3.1970262917470427e+02  3.3510876025671422e+02  3.3002605377159188e+02  3.0876298008432661e+02  3.3977434690046908e+02  3.7557887511607436e+02  3.9559700494008968e+02  4.1670692878199031e+02  4.3808815259817965e+02  4.5083649155011790e+02  4.1637715394384907e+02  3.6518027141219432e+02  3.3262049973697583e+02  2.9381528773940721e+02  2.7501956113234326e+02  3.8914391125360515e+02  4.6201560627338205e+02  4.2261728908184898e+02  3.8886217126508490e+02  4.1881220129728666e+02  4.6871282871643206e+02  4.9428473378196810e+02  4.9765629167938471e+02  4.8170962210268368e+02  4.4969865618041899e+02  4.6007088742895218e+02  4.5756146994846023e+02  4.6469859183431635e+02  4.3103132404452248e+02  4.2023155488932673e+02  4.0531765041518889e+02  3.7956249072741286e+02  3.2462292389917388e+02  2.9500066543179571e+02  2.3512255084202340e+02  2.1443305795620876e+02  1.7572036225010402e+02  1.3668560190934733e+02  9.2309599595012358e+01  9.8506108131055157e+01  1.2145480860012546e+02  1.1365657445666372e+02  1.1288619155814297e+02  1.4871969366575371e+02  1.7435603696316278e+02  1.8152273602096648e+02  2.3497329522726395e+02  4.0610242866471259e+02  3.5703584791168305e+02  3.5231133879485907e+02  3.6517484076574226e+02  3.8670368285012466e+02  4.0299190757969404e+02  4.5040592640826100e+02  4.4213216015372586e+02  3.9524669473158264e+02  4.0449411877958210e+02  4.6464131128116583e+02  4.3028131885864599e+02  4.2083470583852397e+02  3.9228505872657900e+02  4.1234611056650374e+02  4.4130259019359625e+02  6.2157272435373216e+02  6.4569588121367974e+02  6.7601320425793426e+02  6.2505152577430113e+02  6.2687845470646437e+02  6.7164474303829923e+02  5.9816763419094468e+02  5.7124849575569635e+02  6.1413194383270888e+02  5.9824330402551755e+02  5.0992830342581254e+02  4.8263914009519124e+02  4.1813507459771938e+02  4.1340814114624379e+02  4.0817619065855752e+02  3.5955318908450687e+02  3.7791800093488922e+02  2.9986791172046549e+02  2.3028068790089824e+02  3.7233910736662085e+02  3.4240001253663746e+02  3.7159163259018266e+02  4.6954621257511292e+02  4.7847385528370046e+02  6.0969494427240886e+02  6.1987970111491541e+02  6.6369730306131089e+02  6.6640487701446273e+02  7.0767794375788276e+02  7.2056638136044228e+02  7.3489965387564564e+02  7.8597773547763677e+02  8.4999010438853134e+02  8.7727487481969717e+02  9.0762035472352818e+02  9.7330225975289193e+02  1.0148606379639759e+03  1.0875055700650023e+03  1.1275929238507015e+03  1.1446467021610138e+03  1.1725321528332006e+03  1.2099570628148169e+03  1.2797112510523993e+03  1.2729113250153862e+03  1.3160555257920453e+03  1.3363026944654262e+03  1.3918273454734385e+03  1.4557063899043528e+03  1.5013494656602390e+03  1.5355766330361987e+03  1.5754359559694328e+03  1.6300738080899578e+03  1.6776755578372536e+03  1.7143778840147813e+03  1.7541490107391000e+03  1.7926109027476057e+03  1.8379584235721436e+03  1.8778824026493126e+03  1.9194808370957192e+03  1.9533040437700561e+03  1.9964543348036393e+03  2.0270436234499518e+03  2.0655625258786699e+03  2.1108561046786867e+03  2.1455146486633084e+03  2.1832749911392402e+03  2.2224921167046559e+03  2.2588281560524420e+03  2.3026374815286422e+03  2.3273195508103831e+03  2.3656421152418516e+03  2.4153376557386337e+03  2.4502954387658624e+03  2.4797070686202637e+03  2.5054099356456786e+03  4.7799153745796980e+02  4.5120594730688515e+02  3.3999049160480808e+02  3.3653495112018732e+02  3.3049600720663454e+02  3.1396365952426811e+02  2.5304285082537416e+02  2.1778010586341489e+02  2.1704113197149016e+02  2.1717346040948331e+02  2.1512925725244264e+02  2.3670561562871109e+02  2.5716740050212002e+02  3.0677816732442136e+02  3.3080463471096755e+02  3.6555731065525589e+02  4.0998967365738821e+02  4.2374371236341517e+02  4.4033075301371099e+02  4.4489120779534414e+02  4.7638457894507803e+02  5.0704905498683377e+02  5.2757235018866459e+02  6.1518169338530788e+02  5.9618983197689670e+02  5.7317758347497772e+02  5.5060740014063606e+02  1.4914988890477153e+02  1.5434865963032760e+02  1.6267404323963518e+02  2.4876966101475050e+03  2.4603493569113921e+03  2.4350292565531713e+03  2.4329629538756521e+03  3.3822688916096934e+02  3.3486286268876529e+02  3.0407464229382458e+02  2.3477419534494493e+02  1.7085602270283093e+02  2.1873192491764185e+03  6.0767197852229503e+02  6.0864786914942704e+02  9.2751761617341754e+02  1.0462997613546852e+03  1.0068524189344425e+03  5.3071036990083996e+02  5.8082981294502315e+02  4.8979007951790061e+02  1.8101808618525843e+03  1.9087080429745888e+03  3.5545490267203678e+02  1.7514176402851800e+02  1.7854007867991652e+02  1.4989255280313275e+03  1.5970814613059415e+03  1.5476036056750518e+03  1.9872130810037454e+03  2.0815330511259353e+03  1.9768623035502039e+03  2.3559084609075949e+03  2.2675159439820736e+03  1.6763936894934460e+02  1.9430170422206265e+02  1.7558593088010548e+02  1.2011517123733920e+03  1.7136502213785297e+02  2.0794117367553590e+03  2.1568067523381586e+02  2.2183713558319096e+02  3.2732879671409444e+02  3.4179182898190527e+02  3.4958121629953018e+02  5.0148302310591441e+02  4.2893008557730877e+02  4.9267056014727262e+02  6.2653596665245198e+02  6.8653529053851480e+02  5.9834644823317706e+02  1.7304646575190168e+03  1.6808419997947913e+03  1.6147912753845790e+03  9.3483349801759402e+02  8.4623633024373498e+02  8.7803142403375978e+02  6.1973575353354738e+02  4.0816767890113437e+02  3.7903375388079189e+02  5.4471913484798495e+02  6.9379036846267013e+02  4.0372912069851048e+02  4.5094091383122594e+02  4.6556442392899925e+02  3.4570613077786606e+02  4.6828285027216498e+02  7.0145626528083108e+02  7.3747049153839635e+02  6.9185346836258009e+02  6.7919466522893663e+02  6.0443870234750602e+02  7.3539751453114582e+02  8.5362305772995137e+02  1.8035877791215239e+02  3.4213183563465384e+02  4.1451296286871957e+02  8.0070445072757866e+02  7.3389747373490115e+02  7.6194616916437178e+02  7.5193992539555131e+02  8.1860644208068368e+02  8.5181036843217021e+02  8.3189280794265608e+02  2.2143701434039923e+02  1.9430390746408762e+02  2.5096968477018669e+02  1.1430157943402833e+03  1.2029924894589030e+03  1.2293706658872093e+03  7.1773763172465385e+02  6.5721000197755336e+02  6.6322918364252848e+02  6.9863464227429756e+02  5.7842814399254928e+02  5.3659287087078860e+02  5.0659623561833217e+02  1.9277408771371972e+02  1.0197511369141796e+03  1.7128823838643152e+03  3.9654688355824783e+02  4.0835540270951662e+02  2.0413739816601114e+02  2.6271333910484600e+02  3.4485504483574198e+02  1.9394236968045675e+02  1.7903713104505400e+02  9.1795392872709385e+02  8.7105294240423927e+02  9.2559978603691536e+02  8.2121824355621425e+02  4.3801531297794673e+02  4.4453957181450249e+02  4.3191712373110767e+02  3.5781549641580358e+02  3.6791120186146293e+02  1.3302546683297496e+03  1.2660699621951489e+03  1.2613695849446133e+03  1.3769159142017493e+03  4.3707996358149825e+02  4.7327393354436640e+02  4.6634395001022142e+02  4.4393739149986999e+02  1.0114100879412396e+03  1.0086261987508527e+03  9.6953618130893074e+02  7.1330805541440589e+02  7.3515964653742230e+02  4.2088724009481047e+02  3.8594962432220154e+02  2.0197245440915685e+02  9.9082533711660994e+02  1.0102336755616101e+03  9.6171862850141883e+02  9.9156275751985777e+02  2.3875231159697305e+03  2.2746638783846688e+03  2.3615386356711670e+03  2.2745111519221978e+03  1.6811471424880833e+02  1.0161408953271956e+03  9.7892377398625740e+02  1.0505027759533118e+03  9.5399683201745961e+02  6.4067391653341201e+02  3.9308694076559033e+02  3.9872296078303526e+02  3.5300730709609871e+02  4.3023492133994046e+02  1.8581683878342146e+03  7.6186495478463712e+02  1.2452725890045831e+03  1.3788726879792798e+03  1.3534252642693300e+03  1.3025387376800511e+03  1.2265307617240524e+03  2.7672325352971927e+02  7.3225879979058686e+02  7.5050991578314381e+02  7.4804192411111774e+02  2.3140278704315438e+03  1.2482631005368914e+03  3.0772923279168333e+02  3.7868282357051680e+02  1.6319879006031608e+03  4.4263203490511148e+02  4.3939027842811254e+02  5.1176490627986965e+02  6.6442341681156290e+02  7.7857423412595369e+02  6.9511629366883301e+02  4.7625733306143081e+02  4.3342982872115056e+02  4.7389202048124878e+02  5.7483901026180388e+02  9.7334270765001452e+02  1.0061132485203648e+03  1.0075891291865009e+03  2.5126279741485880e+02  1.0707569441513785e+03  1.0386157497838399e+03  3.8449227623437071e+02  3.9188332909688432e+02  5.2807144300701862e+02  5.6327220174160686e+02  5.2615358549848247e+02  1.5897398168548393e+03  1.5347819276319910e+03  1.5336293839086989e+03  3.6663116932253303e+02  4.1375396379636442e+02  4.8959117400058199e+02  5.7829032762132374e+02  1.9323262626204742e+03  5.4490038056715741e+02  4.9962781542781977e+02  1.3300658536787300e+03  3.2667124898043710e+02  4.5533578935570847e+02  7.2394481140149082e+02  5.1294035675633972e+02  1.4903859797888831e+03  6.6411301638222562e+02  7.9203390541672297e+02  8.0239159743470259e+02  7.6324250248808971e+02  7.8272521308547834e+02  8.3142732174116702e+02  7.0844652216064378e+02  6.8109741354421124e+02  1.5939769258315189e+03  1.6422242406316127e+03  6.1216866583602564e+02  5.5256993499847772e+02  6.6481518306565101e+02  3.1052496416442096e+02  1.4299485243580548e+03  1.4007536912668431e+03  1.4655612835987747e+03  6.1078384306070473e+02  7.2728896771352674e+02  1.5501064421023980e+03  1.4897850469561581e+03  1.3434439851446359e+03  5.4343939128905072e+02  5.8281939327040664e+02  1.5295722768992052e+03  4.8260009030199353e+02  1.4310434225033719e+03  1.4718864153871677e+03  1.3996675569839904e+03  1.3075490034298739e+03  1.2179780175641758e+03  8.9899619612756851e+02  9.1914858190991072e+02  8.4307520730182603e+02  7.3322184015984101e+02  2.9726144731963944e+02  2.8742289200725031e+02  7.8019592107094354e+02  8.4035595049118660e+02  8.3767608457108383e+02  8.7651208151615310e+02  9.0668357053854265e+02  2.1476969314998892e+03  2.7425593514222999e+02  9.0084920404379091e+02  9.4106224533755790e+02  9.0383786855798564e+02  1.1647592562170844e+03  1.0915447233287371e+03  1.1027984885555995e+03  8.2165901056714586e+02  7.7036384325196218e+02  3.6341487969374452e+02  1.0370787794748944e+03  8.1571332333213479e+02  3.3140021432721130e+02  3.4700359593660988e+02  3.2096284023304975e+02  2.0129206756742697e+03  2.2140156755252963e+02  8.2262993389490998e+02  8.0366955843286428e+02  1.1153835500286764e+03  6.6065218591250641e+02  1.2286702535679724e+03  1.1331942817778634e+03  4.1463229948891387e+02  3.9604607902721614e+02  3.1917347200639711e+02  4.5072687421130303e+02  4.6359276410969613e+02  1.1262549188952955e+03  1.0974892571249882e+03  1.0713178116707181e+03  1.2770768705343226e+03  1.0221251879324552e+03  9.8779102948343802e+02  1.1062816903331891e+03  5.9755876287371302e+02  8.6894697212684946e+02  3.8562081997593612e+02  4.0737765354598372e+02  7.9274181915126326e+02  8.2706473384604487e+02  6.4482190137523412e+02  6.3299361983420044e+02  1.8474180635027578e+03  3.5989796698961607e+02  7.0280052915695433e+02  3.4586716881481937e+02  1.1319438558477655e+03  1.1099126003557567e+03  1.0540414261897045e+03  4.8161296222287933e+02  2.1041462089271354e+03  8.8864611742786258e+02  2.8267210630762582e+02  3.1662979620532286e+02  2.9810695432960546e+02  7.4618782905671503e+02  4.7635575294238799e+02  1.4130986501678790e+03  1.3658656871807675e+03  1.4101451021656803e+03  9.4863860128756767e+02  1.2339935027002739e+03  2.6460171265885265e+02  2.4970363137096683e+02  2.2932574177876435e+02  2.3967066566858031e+02  4.9608046018966326e+02  7.4502687002831658e+02  7.5315493557896957e+02  2.9443328771753659e+02  1.4490867203975399e+03  2.0591932710777382e+02  2.3153158944707127e+02  3.6538455333660039e+02  3.7963858790238737e+02  1.1457848742400147e+03  1.1875378053136253e+03  4.0186341897784928e+02  1.9309557218538907e+02  4.9767878998449163e+02  2.3392656924012776e+03  2.2447755860956704e+03  1.7600434681288802e+03  1.8669483955957646e+03  2.7719343049419450e+02  6.6581064714458159e+02  7.0869122464182533e+02  1.2993043926148562e+03  1.2911171975771510e+03  6.7908439962652619e+02  6.3588571568710256e+02  6.3973237253204184e+02  5.9598472051340582e+02  2.7858886763541699e+02  2.6002156494788079e+02  5.0425564745823715e+02  4.8076751400768762e+02  5.1469423355266395e+02  4.0699507800525254e+02  1.1444234507277072e+03  5.2565293841863104e+02  6.9660318358951702e+02  6.5859650117055423e+02  2.0057438641882568e+03  3.7509972603651966e+02  3.9340102000339795e+02  1.6657466981952343e+03  7.7151686915692608e+02  2.5594118161447093e+02  2.4480645274663505e+02  5.9622731566440666e+02  5.4552489420485495e+02  9.3902225290930028e+02  6.3271224326531103e+02  1.1186942208058397e+03  9.2753923127027110e+02  7.1267472696932714e+02  8.7667783790672365e+02  8.3967452209228395e+02  8.2536050575100626e+02  3.5046694292369108e+02  6.4337975127463471e+02  7.1166533323840019e+02  4.9094317490068767e+02  8.1481631987804633e+02  1.4791207206133163e+03  2.5492026828420907e+02  2.3696237727522214e+02  9.0304727134668065e+02  5.7818751070742837e+02  7.6509958534366206e+02  7.2712501148652359e+02  5.6306306226563777e+02  3.7192973833485382e+02  2.5098147281634942e+02  2.6163548782099872e+02  1.7788334221159271e+03  1.8976622245125996e+03  1.0279358813065001e+03  1.0794850371196555e+03  9.3286425871717825e+02  1.0464295625050904e+03  9.0949754356381573e+02  2.9896190290471526e+02  3.7591882626647282e+02  3.3321591942016863e+02  8.5192248393924478e+02  9.4547186482879886e+02  1.4644972840815540e+03  4.2260523717258491e+02  2.9042840803752506e+02  1.2461573555011319e+03  1.2195239386032827e+03  1.1561285040704263e+03  4.1546149182703971e+02  2.1705408542069599e+03  5.3264270745529177e+02  5.5301915619903912e+02  6.6498829404785818e+02  4.8470191163324438e+02  1.7469113716968664e+03  2.1825041591153358e+03  5.4825405286374121e+02  4.9554431031162073e+02  7.4533573270411625e+02  1.9078544190099324e+03  1.2525473686488842e+03  9.7591117804887790e+02  1.7979187559933021e+03  1.1297864026548154e+03  5.9218614280985935e+02  3.9031723283808520e+02  7.2185527678851429e+02  1.9827198494643187e+02  2.1973713017002956e+02  8.2041411586474612e+02  2.3967062298933007e+02  6.2565539422913639e+02  </DataArray> 
</PointData> 
</Piece>
</UnstructuredGrid>
</VTKFile>