<?xml version="1.0"?>
<VTKFile type="UnstructuredGrid"  version="0.1"  >
<UnstructuredGrid>
<Piece  NumberOfPoints="747" NumberOfCells="1165">
<Points>
<DataArray  type="Float64"  NumberOfComponents="3"  format="ascii">56818.26305072499 -2506106.549119427 0  42243.18265024776 -2506857.639328673 0  29021.82503270428 -2504261.924403077 0  16550.12421826219 -2499855.084024415 0  4655.032296222308 -2495697.422200306 0  -7261.504300492456 -2494323.621393709 0  -18625.22209185599 -2493319.244519799 0  -29276.70419068305 -2491316.102597814 0  -39371.58555411869 -2489334.610554085 0  -48872.2887625367 -2487148.664179707 0  -56975.1983834749 -2482507.606906727 0  -64856.00389190487 -2478322.793323702 0  -73044.09528138349 -2475914.932075506 0  -80956.89453806292 -2474104.027428716 0  -88297.01099239565 -2471721.028140273 0  -95122.34251075231 -2468979.68610345 0  -102033.0976717825 -2467743.453790383 0  -108667.8585333195 -2467170.433637599 0  -114915.9932325953 -2465984.168528114 0  -120845.1804641294 -2464950.543945178 0  -126578.8706923529 -2464806.636550912 0  -131905.6385080613 -2465871.725308503 0  -137064.687279085 -2466513.84235653 0  -141931.6894689468 -2467114.408289441 0  -146558.2518132151 -2467929.3528441 0  -150981.1782706213 -2468467.119438711 0  -155134.7485423184 -2469150.351715567 0  -159045.2990449393 -2470116.702174883 0  -162783.5633652424 -2470995.874606837 0  -166363.671458142 -2471566.36883454 0  -169791.2094945778 -2472089.92531744 0  -173066.7170363216 -2472372.644023074 0  -176180.8272511644 -2472318.589143077 0  -179127.4549433015 -2471957.228690146 0  -181904.9538427488 -2471408.024018189 0  -184523.0000848745 -2470783.818157519 0  -187005.1824092157 -2470191.610932166 0  -189371.4710935979 -2469697.441393066 0  -191637.2486669229 -2469286.956885205 0  -193813.7840475813 -2468932.72635197 0  -195894.9751436561 -2468622.32397195 0  -197860.5122662469 -2468356.257574914 0  -199699.8496405249 -2468131.239090017 0  -201484.3799547247 -2467852.578310028 0  -203235.1081836333 -2467477.120196301 0  -204148.4039899458 -2468231.328417643 0  -204779.4006070163 -2469477.772737175 0  -206226.3182912302 -2469895.043213626 0  -207209.0484690831 -2471050.353437294 0  -206633.7342709575 -2472198.562901576 0  -206689.2205673746 -2473699.963528 0  -207439.3355646643 -2474578.344737141 0  -208686.077261504 -2475226.075148567 0  -208911.224951669 -2476610.681926033 0  -209786.4032029276 -2477610.304923216 0  -210530.8593792382 -2478701.972600761 0  -211347.3117581898 -2479598.487775704 0  -212436.1994711102 -2480321.158208149 0  -211661.3579813032 -2481227.303558039 0  -212339.4592376566 -2482164.498648201 0  -213368.6786835724 -2482893.361192783 0  -213823.9242874084 -2483849.45466838 0  -213959.3389029546 -2484975.339969706 0  -214654.5105929325 -2485857.893728198 0  -214924.9636302208 -2486897.99052352 0  -215387.1968803907 -2487861.977722809 0  -215850.8935184235 -2488606.845677634 0  -216850.3002300822 -2488718.42607849 0  -217786.1788875306 -2488773.814743428 0  -218655.6596527224 -2488960.510713411 0  -219459.2999881662 -2489050.843080118 0  -220215.8572609511 -2489415.86959818 0  -220949.8949656503 -2489578.990779826 0  -221671.8184129359 -2489638.232601265 0  -222360.8395383537 -2489613.467831609 0  -222996.7344008797 -2489634.843068176 0  -223565.7511683207 -2489892.292788903 0  -224056.7930683517 -2490349.213746534 0  -224487.3350267241 -2490843.9928667 0  -224917.776609416 -2491084.259717198 0  -225385.9512610532 -2490939.6600004 0  -225871.0057115029 -2490692.412192973 0  -226347.6588061106 -2490593.974681439 0  -226807.4764604085 -2490599.669749292 0  -227247.6549526961 -2490611.50259405 0  -227666.4916287626 -2490611.945233863 0  -228063.1258911103 -2490614.649470013 0  -228437.2792766626 -2490619.621715965 0  -228789.0148414041 -2490611.440145575 0  -229118.6979285175 -2490579.661792117 0  -229427.7721220893 -2490551.675512337 0  -229718.2857126026 -2490575.632414152 0  -229992.0195062686 -2490686.778079117 0  -230250.5004979436 -2490869.571547285 0  -230495.0197162354 -2491060.637110347 0  -230726.6693575185 -2491208.220350035 0  -230946.3810285181 -2491273.695406383 0  -231155.1727872346 -2491240.482369016 0  -231354.5763814056 -2491151.916669652 0  -231546.3204437924 -2491058.490694704 0  -231732.1881906295 -2491000.058362073 0  -231914.0081666783 -2491009.477644776 0  -232092.2357485933 -2491100.02032591 0  -232263.9691545902 -2491246.068674924 0  -232425.9547039263 -2491419.407037552 0  -232574.5133449228 -2491597.360932464 0  -232704.8009038861 -2491776.874946281 0  -232810.4395700074 -2491960.360275827 0  -232883.2341085825 -2492150.113137818 0  -232912.9947800571 -2492348.349496039 0  -232888.518304726 -2492556.97189473 0  -232809.3398841225 -2492774.886297886 0  -232684.053466982 -2492998.772055723 0  -232523.4050637269 -2493224.618723386 0  -232341.870709994 -2493446.437774289 0  -232149.8049278373 -2493655.556957558 0  -231926.4623607639 -2493840.270994475 0  -231648.985213168 -2493990.591921999 0  -231333.5089516883 -2494114.232577013 0  -231011.2867655237 -2494226.909041754 0  -230716.5565724511 -2494352.83929517 0  -230448.2156366009 -2494566.308324145 0  -230174.691868224 -2494859.203920859 0  -229854.386277046 -2495099.245907737 0  -229456.0482055206 -2495181.232778375 0  -228998.936468587 -2495162.974046715 0  -228517.5500007842 -2495146.384058104 0  -228039.7566338337 -2495203.170887594 0  -227590.3999753736 -2495397.522350929 0  -227184.981929657 -2495766.19833274 0  -226750.2922870113 -2496024.476637892 0  -226213.5702095754 -2495994.660255382 0  -225600.3011662167 -2496052.877603892 0  -224958.9944484101 -2496261.85032066 0  -224327.7512929673 -2496330.814093316 0  -223631.5812784273 -2496280.649748585 0  -222879.2998883054 -2496301.667794817 0  -222254.9783848506 -2496634.523083093 0  -221626.1319051044 -2497065.090720322 0  -220761.0581340182 -2497211.459477382 0  -219968.5459241767 -2497393.939598728 0  -220203.5455070361 -2497899.480461085 0  -220855.9220298611 -2498603.237242675 0  -221131.2246077028 -2499252.862384938 0  -221774.7122121719 -2499660.862433717 0  -222479.7107982228 -2499760.827055608 0  -223033.1183148655 -2499984.859791101 0  -223490.2596104009 -2500462.200395656 0  -224062.3926326139 -2500600.027660071 0  -224541.1956214423 -2500228.786139573 0  -224949.7350095029 -2499888.083019758 0  -225341.0500730075 -2500225.130315016 0  -225757.1423292761 -2500548.432558256 0  -226180.3939651776 -2500786.080344201 0  -226538.177938963 -2501153.984901021 0  -226773.495284157 -2501569.98568693 0  -227039.0304909855 -2501911.932245616 0  -227468.9595916819 -2502129.814972885 0  -227798.6047508129 -2502389.299855465 0  -227884.9238541838 -2502832.388358992 0  -228126.2989976085 -2503276.196050428 0  -227861.5342855403 -2503623.445554566 0  -227372.9304734626 -2503907.390885711 0  -226957.5853764467 -2504175.647480549 0  -226606.2579015691 -2504483.304832757 0  -226161.0056828749 -2504866.856449728 0  -225815.0711509458 -2505316.314749662 0  -225762.8994468044 -2505806.079859471 0  -225997.7594286802 -2506242.915512673 0  -226398.1360973342 -2506619.148825204 0  -226765.9297719086 -2507036.084494513 0  -226845.4953021393 -2507500.960872594 0  -226465.0153921999 -2507962.631785552 0  -225845.8228635425 -2508243.541008709 0  -225251.6156104354 -2508190.021993677 0  -224690.1793840567 -2507897.641923884 0  -224100.3548492745 -2507553.624348171 0  -223414.5727227449 -2507371.21363621 0  -222654.4265297953 -2507276.075847208 0  -221912.0382560525 -2507297.337862614 0  -221266.9189332082 -2507785.266418245 0  -220681.0921292723 -2508353.609471263 0  -220062.6686429494 -2509000.329523423 0  -219236.8308144344 -2509174.655190252 0  -218255.6568359406 -2509399.603364403 0  -218572.4131759723 -2510066.725015923 0  -218861.5230561548 -2510964.91864626 0  -218883.3556157417 -2511846.204517832 0  -219353.8346553762 -2512525.731451487 0  -219963.2685976659 -2513082.42119797 0  -220488.7752431028 -2513679.96717993 0  -220885.2380172826 -2514382.263808274 0  -220990.1132767769 -2515108.665935786 0  -221485.0382534687 -2515632.998891791 0  -222155.0186764667 -2516036.139659067 0  -222390.5819874348 -2516597.550678985 0  -221683.5075769027 -2517109.541916781 0  -221049.1691573458 -2517587.936233334 0  -220341.3916149238 -2518020.204995572 0  -219495.2331410376 -2518369.688367899 0  -219546.7035698217 -2519131.218151119 0  -219685.2088385221 -2520038.091014113 0  -219723.4857113709 -2520890.499102236 0  -219511.8253665795 -2521706.050384868 0  -218768.9497051224 -2522318.273173176 0  -218062.3835558011 -2522951.471679174 0  -217792.1932780886 -2523832.754628343 0  -217721.1829300973 -2524802.156087346 0  -217105.5823664274 -2525632.89503949 0  -216114.3489158486 -2526130.198485046 0  -215762.8823642595 -2526977.667966621 0  -215624.0210213385 -2528047.606007989 0  -215626.57696477 -2529136.754249504 0  -215068.1955778405 -2530004.876344503 0  -214353.5819060722 -2530902.512838067 0  -213458.5631825881 -2531647.245829566 0  -212582.3066935458 -2532532.655828057 0  -211601.1993616105 -2533281.698502241 0  -210230.8203599756 -2533492.702960313 0  -209359.9819486135 -2532733.353591639 0  -207963.7301089823 -2532402.039407601 0  -207461.9620998055 -2533726.636299287 0  -206743.678788939 -2535012.373417936 0  -207794.6479248811 -2535697.474151645 0  -208706.2824926935 -2536681.47128792 0  -208662.8240783605 -2538140.018106792 0  -209359.9957095342 -2539157.350742796 0  -209716.6789857079 -2540401.743356431 0  -208811.4519281083 -2541468.645140812 0  -209077.7529802741 -2542648.334750617 0  -210420.4603172865 -2542562.067677911 0  -211621.9917404423 -2542541.993928391 0  -212754.33587808 -2543120.703356035 0  -212519.6312691136 -2544241.062718421 0  -213084.8685374894 -2545195.129669076 0  -214049.5779914909 -2545637.606566725 0  -215070.0904746166 -2545977.323497721 0  -215634.1102203288 -2546825.493334641 0  -215621.16885731 -2547930.190942091 0  -214942.2606588054 -2548830.648553029 0  -2
[...]
<CellData  Scalars="f_39"> 
<DataArray  type="Float64"  Name="f_39"  format="ascii">3.2652610076625484e+02   3.5077788745857043e+02   2.4913687012257910e+03   1.7858065590866602e+02   2.1982529715545375e+03   6.2960319339652597e+02   1.0022771450656512e+03   5.9761895870883552e+02   1.6318315918585142e+02   5.4770410952634870e+02   1.8718588608908990e+03   3.0097788015396429e+02   1.7055543206929607e+02   1.5394212065722322e+03   1.6640577669090041e+02   1.9027938893448727e+03   2.0194065385095967e+03   2.3051546409755019e+03   1.8196563143757098e+02   1.1910183364628915e+03   1.7774616118317985e+02   2.0479178263347933e+03   2.1136243474896094e+02   3.3985735476465749e+02   2.3292779613351363e+03   4.6980744842553463e+02   5.4597446608684379e+02   5.0320443368103724e+02   5.7530120604485182e+02   6.4121735719016829e+02   1.6802365513771192e+03   8.9904605116936000e+02   5.4957292765831437e+02   3.8515316840393962e+02   3.6048990257417904e+02   6.5382343225751538e+02   6.1852216514532893e+02   4.3343952597121654e+02   3.4647286734885819e+02   4.7870261860523112e+02   6.8665151088099765e+02   6.9809313581578579e+02   4.5052506690213977e+02   6.2764400107975030e+02   7.7903131999974266e+02   5.9806046145893833e+02   2.0594401502059301e+02   7.3249426981463409e+02   3.5927707184631981e+02   7.8121476224663593e+02   7.6343515672434228e+02   1.6553817226608990e+02   8.3918425964079518e+02   2.1253910768197110e+02   1.5782330902757724e+02   1.8463001129582423e+02   1.1751379378258689e+03   6.9280568181520312e+02   5.0998065331198382e+02   7.0272334514790532e+02   5.4305400097463394e+02   3.9672244721033530e+02   1.6018443267198532e+02   9.1233329526767295e+02   1.7555858758554568e+03   4.1295819877772686e+02   2.2557434091970907e+02   4.3348001520920320e+02   1.7820755788580550e+03   1.9756877613965710e+02   3.3810100252938895e+02   1.8056891923104729e+02   1.8018819492796007e+02   9.1903557293717688e+02   8.4087018321747098e+02   8.9514421542849050e+02   4.1366620757047980e+02   4.1728396337850756e+02   3.9032381368314486e+02   1.3087606477586532e+03   1.3468596768873217e+03   4.5808416449678106e+02   4.5072061933548707e+02   9.9930128816940464e+02   7.3698762052025120e+02   4.1606012560957726e+02   4.3352452998034914e+02   4.0321067904427474e+02   1.9045875260317598e+02   1.0038846021949269e+03   9.9383193245669963e+02   2.3401196739774050e+03   1.6251361472606254e+02   2.3042862875593223e+03   1.6472287748912106e+02   3.9533267320112475e+02   1.5607699926017781e+02   1.0323915877789768e+03   9.8648859263387635e+02   6.7004557473701755e+02   3.6398925039872552e+02   3.8214078745655121e+02   4.0749008803155931e+02   1.7978512800349085e+03   8.4372835867260642e+02   1.3322041248467765e+03   4.4168533855092471e+02   1.3228892925853156e+03   1.2580965997179378e+03   3.3199296388790668e+02   1.3285186377072519e+03   1.7805543980924072e+03   7.6582429389414960e+02   7.6843272852040661e+02   6.6863769609456608e+02   2.3560478743006202e+03   1.2416755923207627e+03   1.2280315691521921e+03   3.4791025234595048e+02   2.2310351388737354e+03   2.3326571898984621e+03   2.2561824861473015e+03   1.6958630968600407e+03   4.4864840455806825e+02   5.5148812739285870e+02   6.9617166584581173e+02   4.7844357121917670e+02   5.1002928913295966e+02   4.6490384837716266e+02   5.2600538554842024e+02   4.4752588375724235e+02   4.3334319868350974e+02   4.5777329803480586e+02   5.4683604279868234e+02   9.7748173031964404e+02   2.8725436759257417e+02   3.1217071302323609e+02   9.4699413880745158e+02   1.7447959134181667e+03   1.0707267769406676e+03   4.5176190154722980e+02   3.3427272627557943e+02   3.6132343449647942e+02   5.3855521092193521e+02   1.0384424059588930e+03   1.5535515870084639e+03   3.4395534385451276e+02   4.3218999532830446e+02   4.9570679328266857e+02   3.2523640243451968e+02   5.0155781108342097e+02   5.0425059937768833e+02   5.4306339327633259e+02   1.8925441894284104e+03   5.1935379959634975e+02   5.2168116456960183e+02   2.4429431798272744e+03   1.8694407798409879e+03   2.4745079537990928e+03   1.3013100647664292e+03   1.3291380237052454e+03   2.3318822806724685e+02   4.5343696848111688e+02   6.7774609053473137e+02   5.0920825237919144e+02   1.6956872774710658e+02   6.5691749458775735e+02   1.4437257282898076e+03   4.3705109639240987e+02   6.4710888583452743e+02   1.7038659539727766e+02   1.6215147396416688e+02   1.4101019736920307e+03   7.8309503843191408e+02   8.2295165484755262e+02   7.1077185029607460e+02   4.6712684383121768e+02   1.6400298826813819e+03   5.8804445772147210e+02   2.5536436740565276e+02   6.6992295635503422e+02   2.7696041202506603e+02   2.4696376744842968e+02   1.6346280771349307e+03   6.4919923542698575e+02   6.4340626556201710e+02   5.1247073099951035e+02   1.4392219699984275e+03   6.6550081869912208e+02   4.9478976364497510e+02   1.5248740029939859e+03   6.8934658061549362e+02   1.5773872379334657e+03   1.3715762707392348e+03   5.5169042734062066e+02   1.5189265019808226e+03   4.5356600932902506e+02   1.4663286083094122e+03   1.4384871614704384e+03   4.4173574114189199e+02   4.1329087219227426e+02   1.5133597461367870e+03   1.6697596512144419e+03   1.5917870401062366e+03   3.8825439160974503e+02   1.2396741661632702e+03   9.5679282875075262e+02   7.6342775483900687e+02   1.5663817640471193e+03   1.0007161724728626e+03   9.8342786097564260e+02   1.5895583150114026e+03   1.6429947418672994e+03   2.9745275566905002e+02   1.6212324469820546e+03   7.0011523324726386e+02   8.1575244830709084e+02   1.8846520018643187e+02   1.4933664422686675e+02   5.8886447617393958e+02   4.2581345574626027e+02   9.0559555241033695e+02   1.2974452984707002e+03   3.7133692795131765e+02   5.5856704493240136e+02   1.8118401779282999e+03   6.3739801668953191e+02   9.4463426542797617e+02   5.7500664627633000e+02   1.9242891770844453e+03   2.2080699110480964e+03   2.8697168926595515e+02   4.9861360937579605e+02   9.1301829172934117e+02   9.3246126221454392e+02   4.6583376560516916e+02   1.1273118928744366e+03   7.7980754604237097e+02   1.5440219151682882e+03   7.5460021268767696e+02   3.6166360349785759e+02   3.6749349711677945e+02   1.0687726167659393e+03   2.1679915734962810e+03   3.8770462096190101e+02   8.2808058418154974e+02   3.3258199788660016e+02   2.0797072076585491e+03   2.3825802958760892e+02   4.6758711176898476e+02   8.0860502583301695e+02   1.1569329831854470e+03   7.0683233479993578e+02   7.3955251533930652e+02   2.1209190971764679e+03   7.7376633365262819e+02   1.1841835189429780e+03   4.1053520033453918e+02   3.9677733275364716e+02   1.3814377969399834e+03   1.3920381515049762e+03   1.1366763878314748e+03   3.2910036715167490e+02   4.4767887190990945e+02   1.8449957779675369e+03   1.0959910746535161e+03   1.3106362039448020e+03   1.1655583286288459e+03   1.0450085985343426e+03   9.9013324697477651e+02   9.0701029526443074e+02   6.2498416852096170e+02   8.0617567224890911e+02   8.3791551359620041e+02   6.1769834129160324e+02   3.8090055557892714e+02   7.8766656664665004e+02   4.3014354303330492e+02   4.1196758381703870e+02   8.7278115370332546e+02   6.6999643179094119e+02   1.8560065932390703e+03   3.7185187696040191e+02   6.2875162412081488e+02   9.3452202957562179e+02   8.7406984125275380e+02   6.7683459491086637e+02   5.9008425062550316e+02   3.3846631342847542e+02   6.7523605372755048e+02   9.7255711778270938e+02   1.1257799127217033e+03   2.1392898369916034e+03   6.4589942066084996e+02   2.0902608453121557e+03   8.7519056698823874e+02   8.3255171663929400e+02   8.3792048472939075e+02   8.9843494374606371e+02   2.1450354148834986e+03   2.9866935721255038e+02   2.9908455317068876e+02   7.1829368020808829e+02   4.7723913230907687e+02   1.3954070595912476e+03   9.1835074004731109e+02   1.1626499209833855e+03   2.5133921698810917e+02   2.3952553897149403e+02   2.3967710320230481e+02   3.2277701371193535e+02   5.1008288504293989e+02   2.1171841552166225e+03   4.9032983512060747e+02   7.8964876471677644e+02   1.3883802107536023e+03   3.3182538483271702e+02   3.1371128129557803e+02   1.4868251720429153e+03   1.5113359701056893e+03   1.4517155437360182e+03   1.3680119584858737e+03   2.1486648143474827e+02   1.0034012899730160e+03   2.0456859080937718e+02   3.5227094516943788e+02   3.9041467011258300e+02   1.1435872939091535e+03   3.5116148555099130e+02   1.0432957199578100e+03   1.1185661125491902e+03   1.2362856069085885e+03   1.0787232753991279e+03   1.3663129863367631e+03   1.6174941834025815e+03   3.9763338109875531e+02   1.8620632540328788e+02   1.5726541058240437e+03   4.4753688379247620e+02   9.5578309299478576e+02   4.2511194283755486e+02   4.3432053694154683e+02   1.8117500098641241e+02   8.0121650533656452e+02   2.0503091039803348e+03   1.3838775060194935e+03   2.2866806791463514e+03   1.9841381153578441e+03   1.8222783523450116e+03   2.3210177068801818e+03   4.3734440254183437e+02   5.6009452031410910e+02   1.9587921159234158e+03   1.2140286038491106e+03   2.8373654226911964e+02   2.2754552673533344e+03   2.2002106758912976e+02   6.9728494845428429e+02   1.3418751722367524e+03   2.3796350893434474e+03   4.7185208037291920e+02   1.4070980352513925e+03   1.3858454431609252e+03   1.3147135530748017e+03   1.3548492780287888e+03   6.5577006878173040e+02   6.2750050641450866e+02   1.9543576918292175e+02   2.4107191975892711e+03   2.7121104974805615e+02   4.7625253599097636e+02   1.2480104762649385e+03   1.5012266930355786e+03   1.8402617949018747e+02   1.0595237927392111e+03   2.8402328126970497e+02   4.8020680943720021e+02   1.1813507872774289e+03   1.3830131925766345e+03   6.1393457138575991e+02   1.4412721877887557e+03   3.9230211224644177e+02   3.9045992182190184e+02   1.3839310545167807e+03   5.0707636295247056e+02   5.1495934368837857e+02   3.7416549227784441e+02   5.9986541075251614e+02   1.3347406343089776e+03   7.1066495820320301e+02   7.0917857246995436e+02   1.4171672018331114e+03   7.0766835864810810e+02   6.7688508218286404e+02   7.1464518470082044e+02   4.4136656641686261e+02   4.0339911084542246e+02   4.4496774286538960e+02   5.5967499673628322e+02   1.9594946708412176e+03   1.9853639075761714e+03   8.8547416794586945e+02   1.6060590370968864e+03   3.9249279603216064e+02   3.7884023807192335e+02   7.1343660213410021e+02   8.0412826924549722e+02   1.6010187719764504e+03   1.6243447993702478e+03   4.9114396417798389e+02   2.0587378175009994e+03   8.5940517089862203e+02   7.5680444064956419e+02   2.4394476216943906e+02   2.0400863914245697e+03   2.3454885474744765e+02   7.6881730615590436e+02   5.7393153968747527e+02   8.8496797696117164e+02   5.6458098240124900e+02   1.6756650293726855e+03   7.5136636870599784e+02   1.0638222512242949e+03   1.1486787368213140e+03   7.5307171689594406e+02   7.6012249706927844e+02   9.1721952776888202e+02   9.1481454064177444e+02   5.7065447551975376e+02   6.3486942900296276e+02   5.2871357065260929e+02   9.6672368406445275e+02   1.5719418839605669e+02   1.1049702384880832e+03   8.2288728392672169e+02   3.9664815333044061e+02   4.0430270107626603e+02   3.8728135175339344e+02   8.9167030244523585e+02   8.5475413413539695e+02   2.2974304184798011e+03   3.6907327540058833e+02   3.4871328850340871e+02   4.4370501427929855e+02   4.1375942401075491e+02   4.4012903304247533e+02   6.8727061934647224e+02   4.9175418793504480e+02   4.4686287391452561e+02   4.7685602587415968e+02   4.7862270767887367e+02   4.6174737270676678e+02   6.4190005570891503e+02   6.8009369602352706e+02   6.7262843180650304e+02   1.8774659523523474e+02   8.0430728178206232e+02   1.5001423866520799e+03   1.4608698071723863e+03   2.4919766233973476e+02   2.6136313736542081e+02   6.2440477740402139e+02   4.5601879113984143e+02   2.6740402076104601e+02   2.3988298027475628e+02   8.8267283719740612e+02   8.6734446714964133e+02   9.0902003303882975e+02   4.2264193248003471e+02   6.0746854365848185e+02   4.3877836871204693e+02   6.5202114841724233e+02   7.3294759503295950e+02   5.7783748619536971e+02   3.7889833591684021e+02   2.5448723308359553e+02   2.5856430797111813e+02   2.6114409460449571e+02   3.1087209613701566e+02   1.8530871217937345e+03   7.0325745775967471e+02   7.2107840237150481e+02   9.9656744804528626e+02   9.8072413017894496e+02   6.7738620211185298e+02   1.0773525883366406e+03   5.1174401677971798e+02   1.7932059439371466e+02   4.9908798335453758e+02   4.0065076180470061e+02   8.3614507013822004e+02   5.2466957071832485e+02   4.9735346001643296e+02   8.4855998364936193e+02   2.0834301077713334e+02   3.5066556361122628e+02   2.0589250133392832e+02   3.2946732411567524e+02   3.8908109409422832e+02   1.0659702406623489e+03   3.4767873694561445e+02   3.3179776237713725e+02   1.0139916155606883e+03   9.2917182379747794e+02   4.9191174819869354e+02   7.0904208296195497e+02   9.0491726341453125e+02   8.4779603409501647e+02   5.0768340802470374e+02   9.2391063687187113e+02   2.7249598942913258e+02   2.6472859223102500e+02   6.9898549861358163e+02   3.7494864119586441e+02   4.2306587963620950e+02   4.1226899904341815e+02   3.8357359933929348e+02   3.6177692544949366e+02   3.8773232061002835e+02   3.5490109853026280e+02   3.0405856277388546e+02   2.7562869308069543e+02   2.9464095263328886e+02   5.7165099101307317e+02   1.0286015404928735e+03   3.6442052833887556e+02   3.2937481039099004e+02   7.9566234474616556e+02   9.7357338161639905e+02   9.6141028626104026e+02   3.8936985087706654e+02   1.4871126113714893e+03   2.2047008673054052e+02   3.1148231457208578e+02   2.4163758813786075e+02   3.8700644531451417e+02   5.0536810240461318e+02   3.9318962697642928e+02   5.9719669605252386e+02   9.9242521011980978e+02   1.0844632623795055e+03   4.4440082927130715e+02   8.6270934084314320e+02   8.0881434206012045e+02   3.5211408119180430e+02   4.1912184225505479e+02   5.3106344997157419e+02   5.4037497744097936e+02   1.2547640430822255e+03   1.2247304148660226e+03   1.1965417422200394e+03   2.1506532157374500e+02   8.3379485520339210e+02   9.7249149045615627e+02   1.2555493387367051e+03   2.1774589379779707e+02   2.3860527180518693e+03   3.0262899162179576e+02   2.4904526740427087e+02   1.1056733312917336e+03   3.8590349285023325e+02   4.3473859055284322e+02   4.6130227596517835e+02   1.1355461311476984e+03   4.3827491289699418e+02   1.0748586870303936e+03   1.8407745054985185e+03   2.7057247775534955e+02   3.5100076623650671e+02   1.0625072420614829e+03   4.1483308304829671e+02   4.0570803003964818e+02   4.4656409319744739e+02   4.3024546335300704e+02   4.2526056720739592e+02   6.1276571997540111e+02   5.1208764386437622e+02   1.3884970969650412e+03   3.1193204494466084e+02   6.9467495819424016e+02   2.1887846020805255e+03   2.1385573749205914e+03   7.3936326501113990e+02   3.8495005961700002e+02   4.0128939478332563e+02   1.5420044781983029e+03   1.5095866771798924e+03   2.2349432877935669e+03   1.4847119168971039e+03   5.1372674941884611e+02   5.8034948140375604e+02   8.0781363127545808e+02   6.2408316988223032e+02   1.4331987681292260e+03   1.3801992289651380e+03   5.1654958861019225e+02   1.8885549407311942e+03   6.7975275610576830e+02   7.8177705368526210e+02   1.7583533998761059e+03   3.7903407079650725e+02   6.7268286478552773e+02   1.4691148046045341e+03   1.9454638110418691e+03   1.4965048009244458e+03   1.6940606988927555e+03   1.0934718469234735e+03   1.0245235376436931e+03   1.7304010211923342e+03   2.4070224411599875e+03   6.8003186463776046e+02   2.1642579649398140e+03   3.3927277435598489e+02   6.9097746452525791e+02   8.2397983936015044e+02   1.0085508569843541e+03   4.0836921620110047e+02   7.0051256009817098e+02   4.8659418141226854e+02   4.8497412013414851e+02   4.1810397564384238e+02   5.5171800797743265e+02   4.3418763045702866e+02   4.3199779232583569e+02   1.4480350528584343e+03   8.5431554288640712e+02   2.1241912088757344e+03   1.4507793568834741e+03   3.4063698592678008e+02   5.2027206871036856e+02   3.5094470267795458e+02   1.8425640553327770e+02   3.2478321975187350e+02   2.1474391316838783e+03   6.8388749316986173e+02   5.7336289516796251e+02   4.9530090048004615e+02   3.7622912343552417e+02   1.8871296317216422e+02   6.1109970638339303e+02   7.1351878144040506e+02   4.4761240459630949e+02   2.2148726454859775e+03   1.9196525770015592e+02   9.4336848569347944e+02   2.0110049719685460e+02   1.1531931777593200e+03   8.9338826479172883e+02   1.2077587966463482e+03   8.1453392719035583e+02   1.2214318334265147e+03   2.0270936396423581e+03   2.0084049854025972e+02   1.9457245819297909e+03   1.6261303849748474e+03   1.5722620496797813e+03   3.4900829296586289e+02   1.9706779275225549e+03   2.4986821547886748e+02   3.5873859416147360e+02   3.3064198940609600e+02   3.0342043922997391e+02   2.6866735557356657e+02   3.6818724197453656e+02   1.8915597612126945e+02   6.9236416556971608e+02   8.9119592167023666e+02   4.8380184903747210e+02   9.1894595873409639e+02   1.9627547097212278e+03   7.8047463901255742e+02   7.0975116585936496e+02   4.0458808339419778e+02   6.4985704038014080e+02   8.8061124574329813e+02   8.9093067437592401e+02   8.5103011057096546e+02   6.6956139723964645e+02   2.2655735837306173e+02   2.0247476654628417e+03   1.0372544292450891e+03   1.9625304069118333e+03   7.1387527694140374e+02   4.4364843435847928e+02   4.7045886060081142e+02   1.3552891928238523e+03   3.6319351634389352e+02   3.8579029430977346e+02   8.1233991577498909e+02   1.3481808734739500e+03   3.9760495795148586e+02   1.1318924865273650e+03   2.0256449107464871e+02   3.4856138411321263e+02   7.3214942918685131e+02   3.7613064964561295e+02   3.5364481360382308e+02   5.3135575228121695e+02   4.2758656394582351e+02   2.1267303302877423e+02   4.1720683636675801e+02   1.3139283695057459e+03   4.4756067704477215e+02   3.7884662513700931e+02   4.9979659570001121e+02   4.3891979042294929e+02   1.2794861754091887e+03   4.7157816028041685e+02   3.7515596543869742e+02   3.5012305319157798e+02   4.1829932620481321e+02   8.3533428787308583e+02   3.8651815292514152e+02   4.4260752127981198e+02   4.3144648742250075e+02   4.3633829267255123e+02   9.4178468266503432e+02   4.5644442357830462e+02   9.3959209528983070e+02   1.2434132595389647e+03   3.7482065560314408e+02   6.6908710230402039e+02   1.2499846666569288e+03   4.1938776377576892e+02   1.7956260429204776e+03   3.9806262451074201e+02   1.8551550810770661e+03   1.3332924019284599e+03   1.8978561941766429e+03   2.7846954531331187e+02   3.0190478255544190e+02   2.7984339791343814e+02   6.6309973397839167e+02   6.0551197463571077e+02   5.7517237458024010e+02   3.4311214845017457e+02   3.4041358345449964e+02   6.1764701283335035e+02   7.0605720870805544e+02   3.6044740880675306e+02   5.5464214047742985e+02   2.7183359471557748e+02   2.1660486912761758e+02   2.2788759775130401e+02   3.0311278252468026e+02   3.1845408811734364e+02   3.5542534241674309e+02   1.0673628638210387e+03   1.3914233189414153e+03   1.3050612861389327e+03   3.4882755078729224e+02   5.4141571608943525e+02   1.0862832225526602e+03   1.3063850897468715e+03   1.0394453364008382e+03   4.3770203088257534e+02   1.1664124808202751e+03   6.3288532840089692e+02   1.0410291739023266e+03   1.1345598016641197e+03   1.0758144710659835e+03   5.3860803862631087e+02   6.0664793446181045e+02   1.0656356185685001e+03   6.0959553243619462e+02   6.5012918291252095e+02   1.0411526354984214e+03   9.6233478589495053e+02   1.0129136496866896e+03   1.0012374986659476e+03   5.6097139401799438e+02   7.1977714085462958e+02   7.3924268394682144e+02   6.8744242544521012e+02   6.7355860004287626e+02   5.7257405176059547e+02   7.2645322571715042e+02   1.6631290985861187e+03   7.6184754903332464e+02   4.6564229429562721e+02   2.2868944904743995e+02   4.1378353301194886e+02   4.5648019605542237e+02   8.1756267574472531e+02   2.2387764073809566e+02   2.2102958796969247e+02   3.5538130951248837e+02   2.2568136097241404e+02   1.2006309926079311e+03   1.7062456091879717e+03   5.7118173509384587e+02   6.3492169284682836e+02   1.7919601331259798e+02   2.9149379175822929e+02   2.8636228343988643e+02   4.0514183583000249e+02   3.00515645345842