<?xml version="1.0"?>
<VTKFile type="UnstructuredGrid"  version="0.1"  >
<UnstructuredGrid>
<Piece  NumberOfPoints="4041" NumberOfCells="7528">
<Points>
<DataArray  type="Float64"  NumberOfComponents="3"  format="ascii">56818.26305072499 -2506106.549119427 0  42243.18265024776 -2506857.639328673 0  29021.82503270428 -2504261.924403077 0  16550.12421826219 -2499855.084024415 0  4655.032296222308 -2495697.422200306 0  -7261.504300492456 -2494323.621393709 0  -18625.22209185599 -2493319.244519799 0  -29276.70419068305 -2491316.102597814 0  -39371.58555411869 -2489334.610554085 0  -48872.2887625367 -2487148.664179707 0  -56975.1983834749 -2482507.606906727 0  -64856.00389190487 -2478322.793323702 0  -73044.09528138349 -2475914.932075506 0  -80956.89453806292 -2474104.027428716 0  -88297.01099239565 -2471721.028140273 0  -95122.34251075231 -2468979.68610345 0  -102033.0976717825 -2467743.453790383 0  -108667.8585333195 -2467170.433637599 0  -114915.9932325953 -2465984.168528114 0  -120845.1804641294 -2464950.543945178 0  -126578.8706923529 -2464806.636550912 0  -131905.6385080613 -2465871.725308503 0  -137064.687279085 -2466513.84235653 0  -141931.6894689468 -2467114.408289441 0  -146558.2518132151 -2467929.3528441 0  -150981.1782706213 -2468467.119438711 0  -155134.7485423184 -2469150.351715567 0  -159045.2990449393 -2470116.702174883 0  -162783.5633652424 -2470995.874606837 0  -166363.671458142 -2471566.36883454 0  -169791.2094945778 -2472089.92531744 0  -173066.7170363216 -2472372.644023074 0  -176180.8272511644 -2472318.589143077 0  -179127.4549433015 -2471957.228690146 0  -181904.9538427488 -2471408.024018189 0  -184523.0000848745 -2470783.818157519 0  -187005.1824092157 -2470191.610932166 0  -189371.4710935979 -2469697.441393066 0  -191637.2486669229 -2469286.956885205 0  -193813.7840475813 -2468932.72635197 0  -195894.9751436561 -2468622.32397195 0  -197860.5122662469 -2468356.257574914 0  -199699.8496405249 -2468131.239090017 0  -201484.3799547247 -2467852.578310028 0  -203235.1081836333 -2467477.120196301 0  -204148.4039899458 -2468231.328417643 0  -204779.4006070163 -2469477.772737175 0  -206226.3182912302 -2469895.043213626 0  -207209.0484690831 -2471050.353437294 0  -206633.7342709575 -2472198.562901576 0  -206689.2205673746 -2473699.963528 0  -207439.3355646643 -2474578.344737141 0  -208686.077261504 -2475226.075148567 0  -208911.224951669 -2476610.681926033 0  -209786.4032029276 -2477610.304923216 0  -210530.8593792382 -2478701.972600761 0  -211347.3117581898 -2479598.487775704 0  -212436.1994711102 -2480321.158208149 0  -211661.3579813032 -2481227.303558039 0  -212339.4592376566 -2482164.498648201 0  -213368.6786835724 -2482893.361192783 0  -213823.9242874084 -2483849.45466838 0  -213959.3389029546 -2484975.339969706 0  -214654.5105929325 -2485857.893728198 0  -214924.9636302208 -2486897.99052352 0  -215387.1968803907 -2487861.977722809 0  -215850.8935184235 -2488606.845677634 0  -216850.3002300822 -2488718.42607849 0  -217786.1788875306 -2488773.814743428 0  -218655.6596527224 -2488960.510713411 0  -219459.2999881662 -2489050.843080118 0  -220215.8572609511 -2489415.86959818 0  -220949.8949656503 -2489578.990779826 0  -221671.8184129359 -2489638.232601265 0  -222360.8395383537 -2489613.467831609 0  -222996.7344008797 -2489634.843068176 0  -223565.7511683207 -2489892.292788903 0  -224056.7930683517 -2490349.213746534 0  -224487.3350267241 -2490843.9928667 0  -224917.776609416 -2491084.259717198 0  -225385.9512610532 -2490939.6600004 0  -225871.0057115029 -2490692.412192973 0  -226347.6588061106 -2490593.974681439 0  -226807.4764604085 -2490599.669749292 0  -227247.6549526961 -2490611.50259405 0  -227666.4916287626 -2490611.945233863 0  -228063.1258911103 -2490614.649470013 0  -228437.2792766626 -2490619.621715965 0  -228789.0148414041 -2490611.440145575 0  -229118.6979285175 -2490579.661792117 0  -229427.7721220893 -2490551.675512337 0  -229718.2857126026 -2490575.632414152 0  -229992.0195062686 -2490686.778079117 0  -230250.5004979436 -2490869.571547285 0  -230495.0197162354 -2491060.637110347 0  -230726.6693575185 -2491208.220350035 0  -230946.3810285181 -2491273.695406383 0  -231155.1727872346 -2491240.482369016 0  -231354.5763814056 -2491151.916669652 0  -231546.3204437924 -2491058.490694704 0  -231732.1881906295 -2491000.058362073 0  -231914.0081666783 -2491009.477644776 0  -232092.2357485933 -2491100.02032591 0  -232263.9691545902 -2491246.068674924 0  -232425.9547039263 -2491419.407037552 0  -232574.5133449228 -2491597.360932464 0  -232704.8009038861 -2491776.874946281 0  -232810.4395700074 -2491960.360275827 0  -232883.2341085825 -2492150.113137818 0  -232912.9947800571 -2492348.349496039 0  -232888.518304726 -2492556.97189473 0  -232809.3398841225 -2492774.886297886 0  -232684.053466982 -2492998.772055723 0  -232523.4050637269 -2493224.618723386 0  -232341.870709994 -2493446.437774289 0  -232149.8049278373 -2493655.556957558 0  -231926.4623607639 -2493840.270994475 0  -231648.985213168 -2493990.591921999 0  -231333.5089516883 -2494114.232577013 0  -231011.2867655237 -2494226.909041754 0  -230716.5565724511 -2494352.83929517 0  -230448.2156366009 -2494566.308324145 0  -230174.691868224 -2494859.203920859 0  -229854.386277046 -2495099.245907737 0  -229456.0482055206 -2495181.232778375 0  -228998.936468587 -2495162.974046715 0  -228517.5500007842 -2495146.384058104 0  -228039.7566338337 -2495203.170887594 0  -227590.3999753736 -2495397.522350929 0  -227184.981929657 -2495766.19833274 0  -226750.2922870113 -2496024.476637892 0  -226213.5702095754 -2495994.660255382 0  -225600.3011662167 -2496052.877603892 0  -224958.9944484101 -2496261.85032066 0  -224327.7512929673 -2496330.814093316 0  -223631.5812784273 -2496280.649748585 0  -222879.2998883054 -2496301.667794817 0  -222254.9783848506 -2496634.523083093 0  -221626.1319051044 -2497065.090720322 0  -220761.0581340182 -2497211.459477382 0  -219968.5459241767 -2497393.939598728 0  -220203.5455070361 -2497899.480461085 0  -220855.9220298611 -2498603.237242675 0  -221131.2246077028 -2499252.862384938 0  -221774.7122121719 -2499660.862433717 0  -222479.7107982228 -2499760.827055608 0  -223033.1183148655 -2499984.859791101 0  -223490.2596104009 -2500462.200395656 0  -224062.3926326139 -2500600.027660071 0  -224541.1956214423 -2500228.786139573 0  -224949.7350095029 -2499888.083019758 0  -225341.0500730075 -2500225.130315016 0  -225757.1423292761 -2500548.432558256 0  -226180.3939651776 -2500786.080344201 0  -226538.177938963 -2501153.984901021 0  -226773.495284157 -2501569.98568693 0  -227039.0304909855 -2501911.932245616 0  -227468.9595916819 -2502129.814972885 0  -227798.6047508129 -2502389.299855465 0  -227884.9238541838 -2502832.388358992 0  -228126.2989976085 -2503276.196050428 0  -227861.5342855403 -2503623.445554566 0  -227372.9304734626 -2503907.390885711 0  -226957.5853764467 -2504175.647480549 0  -226606.2579015691 -2504483.304832757 0  -226161.0056828749 -2504866.856449728 0  -225815.0711509458 -2505316.314749662 0  -225762.8994468044 -2505806.079859471 0  -225997.7594286802 -2506242.915512673 0  -226398.1360973342 -2506619.148825204 0  -226765.9297719086 -2507036.084494513 0  -226845.4953021393 -2507500.960872594 0  -226465.0153921999 -2507962.631785552 0  -225845.8228635425 -2508243.541008709 0  -225251.6156104354 -2508190.021993677 0  -224690.1793840567 -2507897.641923884 0  -224100.3548492745 -2507553.624348171 0  -223414.5727227449 -2507371.21363621 0  -222654.4265297953 -2507276.075847208 0  -221912.0382560525 -2507297.337862614 0  -221266.9189332082 -2507785.266418245 0  -220681.0921292723 -2508353.609471263 0  -220062.6686429494 -2509000.329523423 0  -219236.8308144344 -2509174.655190252 0  -218255.6568359406 -2509399.603364403 0  -218572.4131759723 -2510066.725015923 0  -218861.5230561548 -2510964.91864626 0  -218883.3556157417 -2511846.204517832 0  -219353.8346553762 -2512525.731451487 0  -219963.2685976659 -2513082.42119797 0  -220488.7752431028 -2513679.96717993 0  -220885.2380172826 -2514382.263808274 0  -220990.1132767769 -2515108.665935786 0  -221485.0382534687 -2515632.998891791 0  -222155.0186764667 -2516036.139659067 0  -222390.5819874348 -2516597.550678985 0  -221683.5075769027 -2517109.541916781 0  -221049.1691573458 -2517587.936233334 0  -220341.3916149238 -2518020.204995572 0  -219495.2331410376 -2518369.688367899 0  -219546.7035698217 -2519131.218151119 0  -219685.2088385221 -2520038.091014113 0  -219723.4857113709 -2520890.499102236 0  -219511.8253665795 -2521706.050384868 0  -218768.9497051224 -2522318.273173176 0  -218062.3835558011 -2522951.471679174 0  -217792.1932780886 -2523832.754628343 0  -217721.1829300973 -2524802.156087346 0  -217105.5823664274 -2525632.89503949 0  -216114.3489158486 -2526130.198485046 0  -215762.8823642595 -2526977.667966621 0  -215624.0210213385 -2528047.606007989 0  -215626.57696477 -2529136.754249504 0  -215068.1955778405 -2530004.876344503 0  -214353.5819060722 -2530902.512838067 0  -213458.5631825881 -2531647.245829566 0  -212582.3066935458 -2532532.655828057 0  -211601.1993616105 -2533281.698502241 0  -210230.8203599756 -2533492.702960313 0  -209359.9819486135 -2532733.353591639 0  -207963.7301089823 -2532402.039407601 0  -207461.9620998055 -2533726.636299287 0  -206743.678788939 -2535012.373417936 0  -207794.6479248811 -2535697.474151645 0  -208706.2824926935 -2536681.47128792 0  -208662.8240783605 -2538140.018106792 0  -209359.9957095342 -2539157.350742796 0  -209716.6789857079 -2540401.743356431 0  -208811.4519281083 -2541468.645140812 0  -209077.7529802741 -2542648.334750617 0  -210420.4603172865 -2542562.067677911 0  -211621.9917404423 -2542541.993928391 0  -212754.33587808 -2543120.703356035 0  -212519.6312691136 -2544241.062718421 0  -213084.8685374894 -2545195.129669076 0  -214049.5779914909 -2545637.606566725 0  -215070.0904746166 -2545977.323497721 0  -215634.1102203288 -2546825.493334641 0  -215621.16885731 -2547930.190942091 0  -214942.2606588054 -2548830.648553029 0  -
[...]
<CellData  Scalars="f_261"> 
<DataArray  type="Float64"  Name="f_261"  format="ascii">3.0984584941955512e+02   2.9476341319493849e+02   1.9859360332886865e+02   2.5858989317349915e+02   1.6451498648040513e+02   1.0985956221751444e+02   3.5007284520172976e+02   3.4408987485788566e+02   2.9063529052673198e+02   3.5403974359213578e+02   4.6963778841873358e+02   3.0482207223667228e+02   1.3879630868665160e+02   1.4473112707836904e+02   4.9688643133157507e+02   2.9885681160758651e+02   4.2198345721780362e+02   4.0163837765580865e+02   2.9174120789185542e+02   4.2882192635381068e+02   3.8975412735370418e+02   1.0111295302128495e+02   2.9291552761049201e+02   1.7735736065353885e+02   4.1486397489647482e+02   5.4853437623608670e+02   4.5499735826969129e+02   3.3680528893361100e+02   3.6310113977107699e+02   3.6827071085481845e+02   1.4624428603550228e+02   3.5186545314828021e+02   4.3099376540398441e+02   4.6111154401644694e+02   4.1699035830166565e+02   1.7988626749897378e+02   2.3644477534026325e+02   3.0067537761118945e+02   2.7245761172880663e+02   3.0559243148536791e+02   3.0856956079550980e+02   3.3148226211556016e+02   2.9523370636637071e+02   1.4232286427208339e+02   2.5217882039285237e+02   7.7469365292510062e+01   7.2147227906058163e+01   2.7205501732610344e+02   -6.5624534115429469e+01   4.7681640195406521e+02   5.6177694534888974e+02   4.9904482534619206e+02   5.8184880154782718e+02   3.1240881538444148e+02   2.5486513219806875e+02   4.2965274392028522e+02   2.8258420831509466e+02   3.4539802143301011e+02   3.1634721426032024e+02   4.4244192348911110e+02   3.4006989968970601e+02   4.6533049718649545e+02   1.6941355572019833e+02   7.6944636834385776e+01   3.4843127071071382e+02   1.1820465919883449e+02   1.7100534642607070e+02   3.6685106308386798e+02   2.1360342766366171e+02   2.8063100904790565e+02   2.7589088683963314e+02   4.1601107550693996e+02   3.4233485632744726e+02   2.1500439095171191e+02   1.5024557031707479e+02   3.5590425973746881e+02   2.5676541983427887e+02   2.9624139026696542e+02   2.1865941002171843e+02   1.9824394102718682e+02   2.9472143816436716e+02   2.5232090505623461e+02   2.3678994167802253e+02   3.2481274543231376e+02   3.7641987026063617e+02   1.5044080255420397e+02   2.1809580240383949e+02   2.1160760111360798e+02   -6.2210474132876129e+01   1.0910626187376837e+02   2.1359946531750968e+01   4.3497952551324744e+01   9.6174304213866051e+01   2.8301627935712770e+02   8.7275026991729916e+01   3.1042749195806493e+02   2.0727003376719142e+02   2.5566341421195435e+02   1.6675500442319370e+02   3.6463467511070274e+02   4.0501453184687489e+02   3.6373287613221459e+02   3.7272264956464943e+02   4.2243121860159170e+02   3.8522094967739463e+02   3.9877583878277466e+02   4.3986738837078076e+02   1.8960083505416480e+02   4.3965165998039703e+02   -1.0767481658991906e+02   1.2675993757330077e+02   2.3419561583544137e+02   2.9760567763481913e+02   3.6543892307205408e+02   2.3967160864851903e+02   3.0556702004518166e+02   2.2011685198897047e+02   2.0402282819885397e+02   3.4368171292363741e+02   3.3084248498342157e+02   1.9223524489900862e+02   4.1040387650759135e+02   3.5727948188252037e+02   3.4039442262837287e+02   2.9054553753398068e+02   3.2240682304926872e+02   3.0979150471191036e+02   1.2724927906092887e+02   5.0731605826141578e+02   5.1670104214127423e+02   4.4318623416598791e+02   4.4576958563492269e+02   3.8145823830477104e+02   2.4379426964298045e+02   1.6956238836781964e+02   2.0487030975948238e+02   1.7320589391482861e+02   5.0303918243590056e+02   5.1586844362785257e+02   1.4458783320410933e+02   2.5785686065870794e+02   2.3663966168678172e+02   4.9477155489231245e+02   3.1487758091702881e+02   2.1959269702536625e+02   4.3923314276097318e+02   4.2087457451064569e+02   3.3875873315357671e+02   4.4341562384510854e+02   5.4895394533704780e+02   7.3871795675500010e+01   2.7775284960844760e+02   1.0932600708574681e+02   1.2092679113585727e+02   2.9048870527772704e+02   6.2452234712759946e+01   3.6761270901962416e+02   4.1640670085829578e+02   1.6292374908791797e+02   1.1586870663578539e+02   2.9199548828334764e+02   2.9117204590980009e+02   2.6511911739793817e+02   3.4317770032804901e+02   4.8643605540287933e+02   1.5184124233845910e+02   1.5329522611051274e+02   3.5569908970115625e+02   3.2791060762176113e+02   3.6075542403969541e+02   2.0079428198455321e+02   1.9375471221250027e+02   2.0804896836780111e+02   2.1523288942017163e+02   1.5683621318066329e+02   2.3668728365061062e+02   2.2413318935864433e+02   8.4762265769453222e+01   3.5803850109664370e+02   1.9045882313075111e+02   1.3472535046921377e+02   4.7508493787355360e+02   2.2118325057488829e+02   4.7197620866228363e+02   4.1721360096371882e+02   4.6025962792836043e+02   2.1330489055587403e+01   3.1149798292932002e+02   5.8062851728757175e+02   2.3902906599577707e+02   2.5699798787841610e+02   3.9879302944578023e+02   2.3828279064117595e+02   2.7310841151950882e+02   4.6755800217186220e+02   3.0105708158899040e+02   2.2974096978129077e+02   2.7833411965550005e+02   4.5319804667336103e+02   2.5424895850757844e+02   2.4880216160795032e+02   2.0713106088909907e+02   2.4012962154285117e+02   2.3528482181551885e+02   3.1454666012768001e+02   3.3123899017116986e+02   2.4233843714089670e+02   1.5470995538922378e+02   2.7007893283752304e+02   2.5824511117185119e+02   5.0582946895566556e+02   4.5974168465768571e+02   2.5893387317789029e+02   2.5700893971166056e+02   4.8192890402441350e+02   4.5328084227708882e+02   5.9384185803917342e+02   4.6342962089579612e+02   3.4504214211490910e+02   3.3519771808420575e+02   2.9071411416919858e+02   3.6220047532652097e+02   2.7525753166516415e+02   3.2113362161035229e+02   2.3851015231836683e+02   5.2532802359286927e+02   4.4294741650801245e+02   1.4174050372487872e+02   5.4545311337502017e+02   3.5311679000862426e+02   3.3790591232708698e+02   4.9503404576784538e+02   3.6727810330475427e+02   4.1281365214415996e+02   4.0267500553693958e+02   4.1119529192436539e+02   4.5362697569303907e+02   3.4813018521735773e+02   2.9336145884144702e+02   2.1182523728562387e+02   1.9631051357769064e+02   1.7308965869133715e+02   1.5455587201149365e+02   5.5247816970565395e+02   4.3221421442312987e+02   4.8667725290683410e+02   4.8040371064850086e+02   4.7877128810746797e+02   4.7094385075506011e+02   4.4953324428009665e+02   4.4507007238725743e+02   5.0136455885007490e+02   1.4249847678053573e+02   1.4602810393502827e+02   4.0441630156882172e+02   5.1147318776733766e+02   4.1154304961527782e+02   1.9636204329559345e+02   2.6130825405562956e+02   3.7236711519835376e+02   5.2274252689590526e+02   2.7682570335121670e+02   5.4954510361319217e+02   3.0391435273673517e+02   4.9392331698034508e+02   2.3100865513358519e+02   2.7961302065317466e+02   4.2413505495545974e+02   2.2641656379704921e+02   3.0405474189292318e+02   4.2004645882067615e+02   3.1312058946799220e+02   2.8038664953976934e+02   3.4340779436326369e+02   2.6769138761276145e+02   3.5260293632729304e+02   3.0014969468623764e+02   3.0607614474357712e+02   4.1819104356564930e+02   2.7760323749235891e+02   1.5897244328840907e+02   4.6489925693318173e+02   1.5240981112804536e+02   2.7730312406638768e+02   7.9569424263511863e+01   2.9986209233894789e+02   3.6050939966224121e+02   2.5788175388718889e+02   1.4567387130413627e+02   3.7069926039846649e+02   1.5165887165973578e+02   5.4923670521363192e+02   5.4626184223425014e+02   1.4013501259093624e+02   1.4487558268008789e+02   2.0949806456562166e+02   5.4565631118077408e+02   2.4222159744503915e+02   3.6489535168739582e+02   5.9617928305882242e+02   3.9896769465330254e+02   3.4209500082532338e+02   3.4991126951763266e+02   3.0112227471974228e+02   1.7717966517131799e+02   1.1483188925260799e+02   1.1599744426912298e+02   4.6776269446390768e+02   7.8665995651947981e+01   1.5114799508146501e+02   1.3865816251733781e+02   3.4961492962282512e+02   4.4649641623423952e+02   2.7479389783011555e+02   4.5939132550558628e+02   4.0258897594670970e+02   2.4315662116319123e+02   2.3304938920905212e+02   2.1855986860804992e+02   1.8506334169670839e+02   3.5457693976981096e+02   3.2995260824605339e+02   3.8780898062705683e+02   2.8979259910074484e+02   1.5653362757745242e+02   1.4718609900093554e+02   1.4974384004257101e+02   1.3117031865458276e+02   4.3751012777798275e+02   3.9596753402893950e+02   3.6575451290588791e+02   4.2497480724347918e+02   1.2132676025776368e+02   1.0128834047574514e+02   2.3010058116099191e+02   2.2489997016623218e+02   2.6449335819463738e+02   4.2756046429122864e+02   9.7087568065832102e+01   1.2390029759697681e+02   2.5851774356067534e+02   2.4008408530087272e+02   2.7141752193964783e+02   2.9615230001810136e+02   4.3673228338579594e+02   2.1676845387286980e+02   2.4014204010035655e+02   8.1730282401413277e+01   8.5890395848437848e+01   8.6959889103125604e+01   9.4349379249302686e+01   4.3982993962563023e+02   4.1209174627145205e+02   1.6682875916076239e+02   1.2011257414246053e+02   2.8821233191722126e+02   2.8660412745355757e+02   4.2906576475015709e+02   1.9752434564097888e+02   2.7394553521795285e+02   2.6048468903835675e+02   2.1208683104004191e+02   4.3229998113924688e+02   4.3233528427191254e+02   2.0627028581462957e+02   3.7561152717627033e+02   1.9202590730756373e+02   1.8697284795175543e+02   1.0707681631414043e+02   1.0378878296049584e+02   2.7579228520520724e+02   2.2913599901175985e+02   2.9680883319970314e+02   1.9205580316607094e+02   2.8577148113596758e+02   3.2296265846292653e+02   3.3753041124349681e+02   2.6126867353071179e+02   3.3572861289196811e+02   1.3186340532461716e+02   1.2530096141265761e+02   4.2451164382753046e+02   -1.4863989005046483e+02   3.9596008149972573e+02   3.8343831668024325e+02   4.1754348272120183e+02   4.9341001334354848e+02   1.5871264241423768e+02   1.5306903092382097e+02   2.3642789876310025e+02   3.9306431324335756e+02   2.4955892146963029e+02   2.2321751669379034e+02   3.8014257965972865e+02   3.6928292330449506e+02   3.2366073016776829e+02   3.4263282166800303e+02   4.6730695986480367e+02   5.3492044657589020e+02   4.6459812247591088e+02   5.1903190445325106e+02   4.9803778038678013e+02   3.8453487258473967e+02   4.4320751057123402e+02   4.4475918332047860e+02   4.5558807192781256e+02   2.7437356984739853e+02   3.9513729458715397e+02   2.8006001768036759e+02   6.2251443776895633e+02   5.9052752274656689e+02   6.0075416059650661e+02   2.2167449904484818e+02   2.5131355659218030e+02   2.4366206711070600e+02   2.1854515547226981e+02   2.8922987263554984e+02   3.0946995368069690e+02   1.5424745298794551e+02   1.4124965549176235e+02   3.3641127812708226e+02   4.0733376599863391e+02   4.1176089066102736e+02   3.5706276063654724e+02   3.9696519098522725e+02   2.4935311487452475e+02   3.9698032770983468e+02   3.2792969659029148e+02   3.1265865553935748e+02   4.1675120024365822e+02   3.9006130496412499e+02   2.9911516365597794e+02   4.8111432961949208e+02   4.8191613294881711e+02   3.1056052941535035e+02   2.7455034031578180e+02   3.1013107852673647e+02   4.2244525328104646e+02   5.1944364101524536e+02   4.8290068679700408e+02   5.0504424917524028e+02   4.0126572143596496e+02   2.6920473975997345e+02   2.9747520532602755e+02   2.9620478107000980e+02   4.9753955129052565e+02   3.8626602074740424e+02   3.9489211511824794e+02   3.2687116750214494e+02   1.3020175837117029e+02   3.0030492101624208e+02   3.3920323526257073e+02   3.2768693696786193e+02   6.1601817253652530e+02   3.8709908281036627e+02   6.3762149827812664e+02   3.7522121278579084e+02   2.5793188313407074e+02   1.9558382810704046e+02   2.1187852009238821e+02   3.7641934378011513e+02   2.0552159877682845e+02   9.4533168211316521e+01   2.3769811798701028e+02   2.0146573186748773e+02   7.7899266990868270e+01   4.5857491143347363e+02   2.3496797254112585e+02   5.3893886405064734e+02   3.5295221356254808e+02   3.2117203950158068e+02   2.6901095191507017e+02   4.8574694545134730e+02   5.0154334860461809e+01   2.3298077107283214e+02   2.0143986083912230e+02   9.9050015447728484e+01   7.3304678747129785e+01   3.4914807880803869e+02   3.2308583731591830e+02   3.2718847193230715e+02   3.2154312309825576e+02   1.2122842301364713e+02   2.9746756078783744e+02   8.4273123037704892e+01   1.1349328630297984e+02   2.2482720578819215e+02   2.5561592941864654e+02   3.8020427296184528e+02   3.8596312303168378e+02   1.6791085616130960e+02   2.2468918909010591e+02   2.2361301494547396e+02   3.0212664465282288e+01   2.3675246013462888e+02   2.2294239016384802e+02   1.9362897993382981e+02   1.7665538385702524e+02   2.3510807570544250e+02   4.4445324291923617e+02   1.5237211914098819e+02   1.8942260778983970e+02   1.7661378791197254e+02   4.6702935388510724e+02   2.0683251354364563e+02   4.8970994359100484e+02   4.9235445005326852e+02   3.2551266335580857e+02   3.4727047257425147e+02   -1.3358618481978453e+01   1.6594160140029338e+01   2.0675718095557173e+02   3.5313280482136554e+02   5.0644675498846289e+02   1.7153033299204807e+02   1.8524948305856483e+02   3.5854383737203420e+02   2.7303645347591464e+02   5.0507152066848050e+02   1.4309808315549924e+02   2.9533471089563324e+02   1.7343518937751833e+02   3.0487878993341099e+02   2.5267479574118443e+02   3.1609821639501268e+02   4.7731273579871237e+02   2.6168407075017200e+02   4.2988789025805227e+02   3.5999055596667654e+02   2.9765475908359338e+02   3.6435157933737241e+02   3.0323284679008691e+02   3.3924633475006749e+02   3.9524994153179517e+02   4.0179025463108508e+02   2.0947082887359915e+02   3.6131441119814127e+02   2.9858950864655901e+02   1.2035206862224325e+02   1.1000260692271632e+02   1.6177317813444890e+02   3.5740999783532527e+02   3.4855283988445649e+02   4.8565531870099107e+02   1.8501676085877625e+02   1.8505977963150215e+02   4.7355735117625090e+02   1.8710518409963018e+02   1.6145977020396697e+02   3.7409117123643011e+02   4.7508641483450680e+02   3.4232698061624518e+02   1.1995950391990255e+02   2.6880106492275956e+01   1.8006476913759371e+02   2.5079088428158349e+02   3.2297800353408320e+02   4.2852293029473395e+02   4.3134335963685902e+02   4.2026316364028651e+02   4.1326779447617866e+02   3.5889604794675984e+02   4.1586565750043951e+02   2.9821807713393724e+02   3.6667302494704325e+02   3.4513292718538463e+02   3.8995975690978173e+02   2.5709868906023951e+02   2.9265257262989383e+02   3.2579038338022593e+02   2.0550615807220052e+02   1.8207034817049311e+02   2.5006392216233547e+02   5.3338773825109945e+02   5.3463361448034777e+02   2.3157510873557209e+02   4.4100535232633126e+02   2.7403451840648080e+02   2.7420605577753906e+02   2.8298916476442838e+02   2.8449695828570128e+02   3.5074961393394466e+02   1.4996346403382734e+02   3.7766301170322765e+02   4.2194664608017740e+02   9.1127617956610408e+01   3.7023472713699357e+02   3.9402399935020156e+02   3.9444296856831244e+02   3.6546644391460552e+02   2.8327584267924198e+02   3.9029602093978042e+02   1.9846894255312350e+02   3.2234339904501155e+02   1.8640271138950789e+02   5.1885402949925231e+02   5.3098319151638248e+02   4.3730853983678554e+02   6.2392053355178945e+01   4.3018740102529904e+02   2.8063154686585460e+02   1.1425578957930918e+02   4.2402971756454599e+02   4.8538258592213504e+02   2.8144233993725123e+02   2.5182111799447185e+02   2.5524285322516468e+02   4.9569873516580736e+02   1.1489667278370707e+02   1.9283981388592628e+02   2.0111244114243675e+02   2.0466004489965090e+02   2.0120671231470664e+02   4.9360095029607760e+02   2.1617132745586116e+02   4.2205246963025979e+02   2.8231324072201971e+02   3.8183680977116160e+02   3.5997944663872840e+02   3.4449978397555299e+02   4.4151966852375313e+02   4.4675313394537056e+02   4.3739083980340672e+02   5.0732863241248896e+02   4.9509960812762426e+02   4.3002632044341482e+01   2.5200636301348271e+02   7.0162576324206640e+01   3.1443178562411578e+02   3.8052282368463193e+02   2.9163217854352911e+02   4.6875401095572590e+02   4.9796869210102648e+02   -5.8980585866730152e+01   2.5498354305653180e+02   5.1202766130050850e+02   3.4870664064947869e+02   3.5284432188275406e+02   3.1506530642116138e+02   2.4321817652182023e+02   5.4839785410838795e+02   5.2537477930756484e+02   4.3196989868179850e+02   3.9920645383375489e+02   2.9708006817702488e+02   1.3651010898382566e+02   4.4542193324108945e+02   2.0379630106258440e+02   1.3827548785282886e+02   2.1482727811163792e+02   1.7628764799179788e+02   2.1335063859845718e+02   1.9986042617472339e+02   1.3839031529113106e+02   3.2963566918380974e+02   4.2634768886120963e+02   4.5623474634784372e+02   1.5133221907524265e+02   2.0726496152335474e+02   4.8640385837452448e+02   3.1059174892086452e+02   -1.4222069841246454e+02   4.3532052596067581e+02   4.1492905130269520e+02   3.9629476916175065e+02   4.2319339583779907e+02   1.7802419579500975e+02   4.0850653564316826e+02   -2.4003844600108931e+01   -4.7581363334900047e+01   2.3426991611940633e+02   2.4191487810881945e+01   7.1909853129914964e+01   4.0070901774461123e+02   7.4955448109955043e+01   3.6510604642898937e+02   3.4008979685332298e+02   1.8465416595173633e+02   3.6890229293617261e+02   3.7121611410599519e+02   2.6818757564052521e+02   3.5269690500831268e+02   3.0725219049306041e+01   4.7036540670746390e+01   3.3189041389313758e+02   5.3426985976181334e+02   5.1458273513964991e+02   9.7548863490377649e+00   1.4109956803138653e+02   2.8822275622516509e+02   4.1864711777111989e+02   4.4610940364755476e+02   4.7773676820855411e+02   3.9872807745050670e+02   4.3727351345206000e+02   4.0713078857078415e+02   2.6572840195688065e+02   3.8537919095722839e+02   3.9894092200711214e+02   3.9125273590251572e+02   3.3465120781204291e+02   2.4426446598226116e+02   4.3223808292293302e+02   2.6291979975938040e+02   1.7325321424288327e+02   2.7476254593167027e+02   2.5459891485674234e+02   1.7289311956445349e+02   1.8866957226145243e+02   2.9911105097573420e+02   2.8580288459852540e+02   2.4460729554484095e+02   2.8992584958664014e+02   1.2619100032096001e+02   4.1889157385578216e+02   2.5075149799169643e+02   2.5579401350281853e+02   -5.0841752967268832e+01   2.6002661929639612e+02   4.8083636670752327e+02   4.8984301342596973e+02   4.2600095922722505e+02   4.4130514011104395e+02   3.9304614474648326e+02   3.7823627636367712e+02   2.9185221146000958e+02   -5.9122784942863930e+01   2.5760828812979054e+02   2.5763217184696441e+02   5.6621195299380111e+02   5.6331756652528406e+02   4.4231624011786693e+02   2.6440352654153310e+02   3.1154785119779740e+02   3.2303157542965693e+02   1.6628629934405626e+02   1.7950905155123240e+02   1.4059615323157445e+02   1.1584467590079124e+02   3.1356892399745914e+02   1.2354194680339043e+02   2.2568091634988599e+02   3.8770722783867916e+02   4.8689763601180061e+02   4.8723261701934041e+02   5.6365301966653544e+02   4.0192464681446097e+02   2.6256907588755689e+02   3.9060532867551922e+02   9.0833944335123192e+01   2.7388556715010384e+02   3.2050533393276169e+02   3.5332509867996680e+02   3.4508371913236675e+02   4.3055557805580611e+02   3.4498629663519858e+02   2.3971610937815925e+02   2.4418347755097045e+02   1.4580764427443492e+02   2.9182913190724958e+02   5.4624870558013481e+02   5.4135763628971222e+02   2.9193461592494526e+02   3.1747948909958347e+02   2.8546237854713593e+02   3.4339187652146870e+02   3.0307193312565875e+02   2.7268117928437010e+02   3.5123099805585946e+02   -1.1459182526563438e+02   1.9899996835814449e+02   1.6874972145897695e+02   3.4767709467301438e+02   2.2354826308664707e+02   2.2379459162137522e+02   1.9078496016311203e+02   1.9647205629055813e+02   5.7169236158554020e+02   2.7254585776490029e+02   2.4621204140853177e+02   4.2320023052860688e+02   1.5818182018094711e+02   4.9665897324441403e+02   3.5895039173787490e+02   4.9380796974283714e+02   5.2239183098538865e+02   3.8915615411901177e+02   2.1542272898937659e+02   4.3198375353656024e+02   1.2387808396259672e+02   3.6347507160126679e+02   1.6203416702155505e+02   4.8427324545359733e+02   1.3034819871238253e+02   2.7889267141116477e+02   3.4448169151004981e+02   2.