<?xml version="1.0"?>
<VTKFile type="UnstructuredGrid"  version="0.1"  >
<UnstructuredGrid>
<Piece  NumberOfPoints="4041" NumberOfCells="7528">
<Points>
<DataArray  type="Float64"  NumberOfComponents="3"  format="ascii">56818.26305072499 -2506106.549119427 0  42243.18265024776 -2506857.639328673 0  29021.82503270428 -2504261.924403077 0  16550.12421826219 -2499855.084024415 0  4655.032296222308 -2495697.422200306 0  -7261.504300492456 -2494323.621393709 0  -18625.22209185599 -2493319.244519799 0  -29276.70419068305 -2491316.102597814 0  -39371.58555411869 -2489334.610554085 0  -48872.2887625367 -2487148.664179707 0  -56975.1983834749 -2482507.606906727 0  -64856.00389190487 -2478322.793323702 0  -73044.09528138349 -2475914.932075506 0  -80956.89453806292 -2474104.027428716 0  -88297.01099239565 -2471721.028140273 0  -95122.34251075231 -2468979.68610345 0  -102033.0976717825 -2467743.453790383 0  -108667.8585333195 -2467170.433637599 0  -114915.9932325953 -2465984.168528114 0  -120845.1804641294 -2464950.543945178 0  -126578.8706923529 -2464806.636550912 0  -131905.6385080613 -2465871.725308503 0  -137064.687279085 -2466513.84235653 0  -141931.6894689468 -2467114.408289441 0  -146558.2518132151 -2467929.3528441 0  -150981.1782706213 -2468467.119438711 0  -155134.7485423184 -2469150.351715567 0  -159045.2990449393 -2470116.702174883 0  -162783.5633652424 -2470995.874606837 0  -166363.671458142 -2471566.36883454 0  -169791.2094945778 -2472089.92531744 0  -173066.7170363216 -2472372.644023074 0  -176180.8272511644 -2472318.589143077 0  -179127.4549433015 -2471957.228690146 0  -181904.9538427488 -2471408.024018189 0  -184523.0000848745 -2470783.818157519 0  -187005.1824092157 -2470191.610932166 0  -189371.4710935979 -2469697.441393066 0  -191637.2486669229 -2469286.956885205 0  -193813.7840475813 -2468932.72635197 0  -195894.9751436561 -2468622.32397195 0  -197860.5122662469 -2468356.257574914 0  -199699.8496405249 -2468131.239090017 0  -201484.3799547247 -2467852.578310028 0  -203235.1081836333 -2467477.120196301 0  -204148.4039899458 -2468231.328417643 0  -204779.4006070163 -2469477.772737175 0  -206226.3182912302 -2469895.043213626 0  -207209.0484690831 -2471050.353437294 0  -206633.7342709575 -2472198.562901576 0  -206689.2205673746 -2473699.963528 0  -207439.3355646643 -2474578.344737141 0  -208686.077261504 -2475226.075148567 0  -208911.224951669 -2476610.681926033 0  -209786.4032029276 -2477610.304923216 0  -210530.8593792382 -2478701.972600761 0  -211347.3117581898 -2479598.487775704 0  -212436.1994711102 -2480321.158208149 0  -211661.3579813032 -2481227.303558039 0  -212339.4592376566 -2482164.498648201 0  -213368.6786835724 -2482893.361192783 0  -213823.9242874084 -2483849.45466838 0  -213959.3389029546 -2484975.339969706 0  -214654.5105929325 -2485857.893728198 0  -214924.9636302208 -2486897.99052352 0  -215387.1968803907 -2487861.977722809 0  -215850.8935184235 -2488606.845677634 0  -216850.3002300822 -2488718.42607849 0  -217786.1788875306 -2488773.814743428 0  -218655.6596527224 -2488960.510713411 0  -219459.2999881662 -2489050.843080118 0  -220215.8572609511 -2489415.86959818 0  -220949.8949656503 -2489578.990779826 0  -221671.8184129359 -2489638.232601265 0  -222360.8395383537 -2489613.467831609 0  -222996.7344008797 -2489634.843068176 0  -223565.7511683207 -2489892.292788903 0  -224056.7930683517 -2490349.213746534 0  -224487.3350267241 -2490843.9928667 0  -224917.776609416 -2491084.259717198 0  -225385.9512610532 -2490939.6600004 0  -225871.0057115029 -2490692.412192973 0  -226347.6588061106 -2490593.974681439 0  -226807.4764604085 -2490599.669749292 0  -227247.6549526961 -2490611.50259405 0  -227666.4916287626 -2490611.945233863 0  -228063.1258911103 -2490614.649470013 0  -228437.2792766626 -2490619.621715965 0  -228789.0148414041 -2490611.440145575 0  -229118.6979285175 -2490579.661792117 0  -229427.7721220893 -2490551.675512337 0  -229718.2857126026 -2490575.632414152 0  -229992.0195062686 -2490686.778079117 0  -230250.5004979436 -2490869.571547285 0  -230495.0197162354 -2491060.637110347 0  -230726.6693575185 -2491208.220350035 0  -230946.3810285181 -2491273.695406383 0  -231155.1727872346 -2491240.482369016 0  -231354.5763814056 -2491151.916669652 0  -231546.3204437924 -2491058.490694704 0  -231732.1881906295 -2491000.058362073 0  -231914.0081666783 -2491009.477644776 0  -232092.2357485933 -2491100.02032591 0  -232263.9691545902 -2491246.068674924 0  -232425.9547039263 -2491419.407037552 0  -232574.5133449228 -2491597.360932464 0  -232704.8009038861 -2491776.874946281 0  -232810.4395700074 -2491960.360275827 0  -232883.2341085825 -2492150.113137818 0  -232912.9947800571 -2492348.349496039 0  -232888.518304726 -2492556.97189473 0  -232809.3398841225 -2492774.886297886 0  -232684.053466982 -2492998.772055723 0  -232523.4050637269 -2493224.618723386 0  -232341.870709994 -2493446.437774289 0  -232149.8049278373 -2493655.556957558 0  -231926.4623607639 -2493840.270994475 0  -231648.985213168 -2493990.591921999 0  -231333.5089516883 -2494114.232577013 0  -231011.2867655237 -2494226.909041754 0  -230716.5565724511 -2494352.83929517 0  -230448.2156366009 -2494566.308324145 0  -230174.691868224 -2494859.203920859 0  -229854.386277046 -2495099.245907737 0  -229456.0482055206 -2495181.232778375 0  -228998.936468587 -2495162.974046715 0  -228517.5500007842 -2495146.384058104 0  -228039.7566338337 -2495203.170887594 0  -227590.3999753736 -2495397.522350929 0  -227184.981929657 -2495766.19833274 0  -226750.2922870113 -2496024.476637892 0  -226213.5702095754 -2495994.660255382 0  -225600.3011662167 -2496052.877603892 0  -224958.9944484101 -2496261.85032066 0  -224327.7512929673 -2496330.814093316 0  -223631.5812784273 -2496280.649748585 0  -222879.2998883054 -2496301.667794817 0  -222254.9783848506 -2496634.523083093 0  -221626.1319051044 -2497065.090720322 0  -220761.0581340182 -2497211.459477382 0  -219968.5459241767 -2497393.939598728 0  -220203.5455070361 -2497899.480461085 0  -220855.9220298611 -2498603.237242675 0  -221131.2246077028 -2499252.862384938 0  -221774.7122121719 -2499660.862433717 0  -222479.7107982228 -2499760.827055608 0  -223033.1183148655 -2499984.859791101 0  -223490.2596104009 -2500462.200395656 0  -224062.3926326139 -2500600.027660071 0  -224541.1956214423 -2500228.786139573 0  -224949.7350095029 -2499888.083019758 0  -225341.0500730075 -2500225.130315016 0  -225757.1423292761 -2500548.432558256 0  -226180.3939651776 -2500786.080344201 0  -226538.177938963 -2501153.984901021 0  -226773.495284157 -2501569.98568693 0  -227039.0304909855 -2501911.932245616 0  -227468.9595916819 -2502129.814972885 0  -227798.6047508129 -2502389.299855465 0  -227884.9238541838 -2502832.388358992 0  -228126.2989976085 -2503276.196050428 0  -227861.5342855403 -2503623.445554566 0  -227372.9304734626 -2503907.390885711 0  -226957.5853764467 -2504175.647480549 0  -226606.2579015691 -2504483.304832757 0  -226161.0056828749 -2504866.856449728 0  -225815.0711509458 -2505316.314749662 0  -225762.8994468044 -2505806.079859471 0  -225997.7594286802 -2506242.915512673 0  -226398.1360973342 -2506619.148825204 0  -226765.9297719086 -2507036.084494513 0  -226845.4953021393 -2507500.960872594 0  -226465.0153921999 -2507962.631785552 0  -225845.8228635425 -2508243.541008709 0  -225251.6156104354 -2508190.021993677 0  -224690.1793840567 -2507897.641923884 0  -224100.3548492745 -2507553.624348171 0  -223414.5727227449 -2507371.21363621 0  -222654.4265297953 -2507276.075847208 0  -221912.0382560525 -2507297.337862614 0  -221266.9189332082 -2507785.266418245 0  -220681.0921292723 -2508353.609471263 0  -220062.6686429494 -2509000.329523423 0  -219236.8308144344 -2509174.655190252 0  -218255.6568359406 -2509399.603364403 0  -218572.4131759723 -2510066.725015923 0  -218861.5230561548 -2510964.91864626 0  -218883.3556157417 -2511846.204517832 0  -219353.8346553762 -2512525.731451487 0  -219963.2685976659 -2513082.42119797 0  -220488.7752431028 -2513679.96717993 0  -220885.2380172826 -2514382.263808274 0  -220990.1132767769 -2515108.665935786 0  -221485.0382534687 -2515632.998891791 0  -222155.0186764667 -2516036.139659067 0  -222390.5819874348 -2516597.550678985 0  -221683.5075769027 -2517109.541916781 0  -221049.1691573458 -2517587.936233334 0  -220341.3916149238 -2518020.204995572 0  -219495.2331410376 -2518369.688367899 0  -219546.7035698217 -2519131.218151119 0  -219685.2088385221 -2520038.091014113 0  -219723.4857113709 -2520890.499102236 0  -219511.8253665795 -2521706.050384868 0  -218768.9497051224 -2522318.273173176 0  -218062.3835558011 -2522951.471679174 0  -217792.1932780886 -2523832.754628343 0  -217721.1829300973 -2524802.156087346 0  -217105.5823664274 -2525632.89503949 0  -216114.3489158486 -2526130.198485046 0  -215762.8823642595 -2526977.667966621 0  -215624.0210213385 -2528047.606007989 0  -215626.57696477 -2529136.754249504 0  -215068.1955778405 -2530004.876344503 0  -214353.5819060722 -2530902.512838067 0  -213458.5631825881 -2531647.245829566 0  -212582.3066935458 -2532532.655828057 0  -211601.1993616105 -2533281.698502241 0  -210230.8203599756 -2533492.702960313 0  -209359.9819486135 -2532733.353591639 0  -207963.7301089823 -2532402.039407601 0  -207461.9620998055 -2533726.636299287 0  -206743.678788939 -2535012.373417936 0  -207794.6479248811 -2535697.474151645 0  -208706.2824926935 -2536681.47128792 0  -208662.8240783605 -2538140.018106792 0  -209359.9957095342 -2539157.350742796 0  -209716.6789857079 -2540401.743356431 0  -208811.4519281083 -2541468.645140812 0  -209077.7529802741 -2542648.334750617 0  -210420.4603172865 -2542562.067677911 0  -211621.9917404423 -2542541.993928391 0  -212754.33587808 -2543120.703356035 0  -212519.6312691136 -2544241.062718421 0  -213084.8685374894 -2545195.129669076 0  -214049.5779914909 -2545637.606566725 0  -215070.0904746166 -2545977.323497721 0  -215634.1102203288 -2546825.493334641 0  -215621.16885731 -2547930.190942091 0  -214942.2606588054 -2548830.648553029 0  -
[...]
<PointData  Scalars="f_305"> 
<DataArray  type="Float64"  Name="f_305"  format="ascii">-1.0814038368529468e+00  6.7616418129015354e-01  5.1714076743581741e+00  5.7604548416597341e+00  4.2427906148205112e+00  4.5418194556623890e+00  8.1608682839786475e+00  3.4985985501855499e+00  8.5742761489506307e+00  8.5308567015517394e+00  1.1849852573818852e+01  1.1747378993810740e+01  3.5433168405117117e+00  2.6692161704676174e+00  -1.4533909609542524e+00  -1.3385532991777396e+00  -3.8989405594580515e+00  -5.1375483833713691e+00  -3.9299171509845605e+00  -9.8282976848306571e+00  -1.0178194807422624e+01  -1.2202928386854795e+01  -1.0412563140836740e+01  -9.7024775855321685e+00  -2.4505254022808094e+00  -5.7921865018677776e+00  -4.8775030580383341e+00  -6.1077645716372233e+00  -2.1982205497952965e+00  -1.0388114779761434e+01  -7.2143349452541745e+00  4.2022979677216404e-01  -8.6331782009492279e+00  -6.8801624790110454e+00  -3.8743260800562869e+00  -5.0171449122163336e+00  -2.4308264250325369e+00  -7.3536463164050492e+00  -4.8469699553667054e+00  -7.6962889054316257e+00  -1.1546330088997346e+01  -1.0849738257711472e+01  -7.7327829381633428e+00  6.0824723503270670e+00  -9.0702644005932698e-01  -5.5810155402477424e+00  -2.0512793023154057e+00  -4.2715091629216495e+00  -2.5770707878711402e+01  -1.6750193850016004e+01  -1.6597499747817985e+00  -1.5839621754308902e-01  -1.4092328415511515e+00  -1.3559689298317941e+00  1.7103562517889621e+00  -3.3883212665488474e+00  -1.3826827310800724e+01  -2.7839976373631337e+01  -7.2338714482257949e+00  1.0968203368283742e+00  -6.5549008570538039e+00  -1.9522097138223427e+00  1.0406443094994016e+00  5.5265439410695256e+00  6.5346888366640616e+00  1.5266027337582442e+00  -1.2922076029822558e+00  -3.4456931275681688e+00  -2.1992237130530228e+00  -7.3804788180855541e-01  1.8547236169311482e-01  8.2616674083232167e-01  5.9984279929295559e-01  2.8675460787259921e-01  -1.3031391539021724e+00  -3.1850735999004143e+00  -2.9620366950428143e+00  -4.9371632018591889e+00  -2.8470161694665785e+00  2.0575235501654174e+00  -5.9202108878976534e-01  -5.6115252087109715e+00  -2.3945244984040346e+00  2.9526822594310089e+00  3.4483388163537625e+00  2.0437812073928114e+00  1.0529669467358418e+00  7.9553410962180937e-01  7.2001947312832293e-01  2.7854673854188006e-01  -3.3209904631308018e-01  -1.6380289698727906e+00  -4.6511011909158828e+00  -6.8218246807521128e+00  -6.5026979378192937e+00  -3.8186430280070063e+00  -4.2127771573674533e-01  -5.4243227293174179e-01  -8.2312184151982148e-01  -8.9574810549048900e-01  -6.7597069048160940e-01  -2.7488534330289727e-01  -1.0183213543273733e+00  -2.2824422729399911e+00  -4.1092520553947720e+00  -1.0155685628749326e+01  -1.4773698506018802e+01  -1.8203013588724001e+01  -2.0994587940843683e+01  -2.3947839841068042e+01  -2.2686134804824402e+01  -1.8862442683781047e+01  -1.4896996397701052e+01  -1.0231318670152842e+01  -5.1370704569140582e+00  -4.7674255204805567e+00  -4.2524858024726813e+00  -5.2007492337057712e+00  -5.3541050857604411e+00  -4.3863726135166630e+00  -2.0212800150611345e+00  -9.6530208560763042e-01  -9.0161961614040309e-01  -1.2816349313939885e+00  -5.1417568824580249e+00  -1.0582552451391519e+01  -1.2426032552650515e+01  -1.0739281104995316e+01  -4.9272498965568081e+00  -4.7358641183600891e+00  -3.3071037572173649e+00  -6.3526690343202006e+00  -7.2858002073082133e+00  -5.0515615481959175e+00  -7.9314862586901871e+00  -1.1230739187371679e+01  -7.0679833419271123e+00  -6.4973888378442703e+00  -5.4773772320195242e+00  -4.8248016351579421e+00  -2.4466988216410170e+00  -6.3079920533460694e+00  -6.5570724860378649e+00  -5.1603192501617201e+00  -3.8331858110903343e+00  -2.6623765793489640e+00  -1.5570533413115655e+00  -5.7988812603049533e-01  1.0360164818945841e+00  6.4052556260179072e-01  1.2375410451285094e+00  1.6501049191374209e-01  -9.9974133991249270e-01  -2.5250494993505344e+00  -3.0155520610373823e+00  -3.5733228980560821e+00  -6.3522538457925943e+00  -4.3819301202134513e+00  -1.5530992554878262e+00  -8.2949105310333060e+00  -1.6442416499932019e+01  -1.5728630203894605e+01  -8.5929803438652002e+00  -6.8755867052969624e+00  -6.2380173537582015e+00  -3.6910543553333000e+00  -4.1129206851778211e+00  -1.1611556758024967e+01  -1.3493136412579529e+01  -1.1897997743414336e+01  -6.6356390011100395e+00  -4.0596179309703553e+00  -4.6471564363814108e+00  -2.6522729617548042e+00  -2.9018178076461605e+00  -5.3774560149984021e+00  -3.7392003236676290e+00  -4.3860084752806028e+00  -3.8922888245972094e+00  3.7483269538257169e-01  -6.8779312279103149e+00  -7.3862831179410708e+00  -8.5886940499499840e+00  -9.8406994319780488e+00  -1.1614515893691321e+01  -8.4239080235514834e+00  -9.7393864061462683e+00  -2.4784689882169417e+01  -2.4367876832579817e+01  -3.8127639716660786e+00  -1.5230257089173296e+01  -9.7531369124962382e+00  -4.6863902937633384e+01  -3.3768998275027826e+01  -8.3817602833137652e+00  -6.7464940299254783e+00  -1.7787526388262265e+01  -3.6387681153884706e+01  -2.7470956949922105e+01  -7.7012779780395064e+00  3.1679513566442949e+00  3.8577129107006920e+00  6.2252918602764318e-01  -1.9984910569548748e+00  -1.9544293519063691e+00  -1.7197992590311100e+00  -3.2901090970941409e+00  -2.9825948366621509e+00  -3.0455424456142430e+00  -7.5375602511055408e+00  -8.1628565263065713e+00  -1.1079745125825783e+01  2.4316651692800644e+00  -1.2315082106754570e+01  -8.6778197289306469e+00  -2.3457564641089249e+01  -1.8801188139259011e+01  -8.6955131817900089e+00  -1.0858380130003539e+01  -1.9908323887230210e+01  2.0249770201704242e+00  -5.7654776279141942e+00  -1.5519878990574277e+01  -5.8304290176450788e+00  1.3579906281969243e+00  -7.2273466463960134e-01  -3.7514397194749818e+00  -8.5156465359575311e+00  -9.6926238001672225e+00  -7.2302262965245783e+00  8.9714499717121154e-01  8.7339160936367186e+00  2.5171161943222430e+01  1.8817671594779475e+00  -1.0643430289679955e+01  -8.6026117305996106e+00  -4.4291557914716790e+00  -9.4442460925352485e+00  -1.2153043538716529e+01  -7.8530164426693494e+00  -2.8363657244768092e+01  -2.0247909855157541e+01  -1.5513335375052804e+01  -5.7893260199867589e+00  2.1526395550909116e+00  -1.1053992550609092e+01  -3.9562963997638327e+00  -6.6015668397513814e+00  -7.3706144152003681e+00  -1.6170192187604910e+00  2.4144399649609025e+00  -6.1750688333545476e+00  -8.0423340406427286e+00  -1.7625146912447114e+01  -2.0164506609611401e+01  -1.8542715098555401e+01  -1.6204822642010701e+01  -1.7580731096171139e+01  -5.2489135636483191e+00  -6.1293311676901885e+00  -6.8319534819371448e+00  -7.6052137367664523e+00  -3.6144123180229548e+00  1.1118981906485077e+00  4.6026073670366108e+00  7.6240214400996127e+00  -1.2136814534977690e+01  2.6258707127651548e-01  8.7911315278008093e+00  8.3098964130059514e+00  1.3903402497329420e+01  1.3313824785886267e+01  1.1587903719466913e+01  8.7105866698439982e+00  9.5514728638547357e+00  1.1006403252250543e+01  9.8152037134336076e+00  6.0270141229629335e+00  8.0380605082342100e+00  1.5831043949053941e+01  1.6521279784015881e+01  1.6168964044057102e+01  1.1275257624894699e+01  9.5688901256940611e+00  1.0927318617508021e+01  1.0419810127194745e+01  1.0184983476493123e+01  3.3800481463293344e+00  8.9130963006995056e+00  6.8974751368239708e+00  5.6051792810611776e+00  6.5642677549998307e+00  7.2330310271402620e-01  1.1569218610714238e+00  -2.1037408830674016e+00  8.9119428142888442e+00  1.4804144733621314e+01  1.7667781763284307e+01  2.1144257841289274e+01  2.3310714666237217e+01  2.4352561652668772e+01  1.7554888742628815e+01  1.6266210390546604e+01  1.5854363181080608e+01  1.5650058697241478e+01  -2.9888605180277237e+00  -2.3880228044963527e+01  -3.6240343051339082e+01  -4.3586080591642180e+01  -3.4101333561976368e+01  -2.2093018381985317e+01  -1.0733832624465421e+01  -1.1462160680992103e+01  -7.4449526955272649e+00  -4.9740075158682941e+00  2.0445490656331501e+01  2.9512141280353852e+01  3.1697342032596659e+01  1.2905034851168010e+01  -2.7473328496801761e+00  -4.5198269553591661e+00  -1.3783144478091893e+00  -6.7652572395195616e+00  -4.6355260881511651e+00  -5.9692105874994752e+00  -5.2739411835039078e+00  -4.1225291536839155e+00  -5.8912946421028467e+00  -1.0143325938788955e+01  -8.5142782593899771e+00  -5.1846698709735426e+00  -6.1066135745652694e+00  -5.2976903528669874e+00  -3.6521273341529907e+00  -2.8047142421782012e+00  -1.0208641496905321e+01  -5.5789064695275172e+00  -3.2831424330875976e+00  -7.7886086809427395e+00  -1.4819348330513863e+01  -1.2239311767186242e+01  2.3409506731895018e+00  2.6613274050571247e+00  -3.7763359134894912e+00  -2.5151683297618068e+00  -1.6722889148326869e+00  -3.8174633302859977e+00  -4.3561622869217871e+01  -5.6873772622304912e+00  -2.1517831079374644e-01  -7.5205717294123220e-01  -1.4725844743070076e+00  -1.2062998173307082e+00  7.1278861239384883e-01  -9.3412235158696380e+00  -1.8008820812015109e+01  -1.8450563382492959e+01  -1.2844569842035736e+00  -5.5840030464962433e+00  -5.9355293930255808e+00  -2.6830942827398138e-03  1.9636484157983719e-01  1.1721347718150522e+01  1.3462606630232887e+00  8.3812500545356572e-01  -2.5266713973292050e+00  -2.9953749386104169e+00  -1.5719442204135436e+00  -1.9881366582044604e-02  4.0702702665046675e-01  6.5251416615761182e-01  3.4189883680864341e-01  -5.3718755254995337e-02  -2.4556887192206851e+00  -2.8976349390727445e+00  -3.9440376578121126e+00  -4.5478581321932783e+00  -6.4418985803446904e-01  8.7925089124145028e-01  -2.9249410496276389e+00  -4.3859401797074593e+00  2.8952315775808612e-01  4.0893062468216570e+00  2.7445127208464517e+00  1.3510984496108605e+00  -5.4547052501705036e+00  -5.0365645186015833e+00  -1.0164295263694580e+00  -7.5948236829252225e-01  -3.3872851812040699e+00  -7.8028100821145010e+00  -1.1845645594431360e+01  -1.1699154172625082e+01  -7.0922085773682486e+00  -4.9852912760670396e+00  -3.9718816158750521e+00  -4.8024603505139050e+00  -7.3302043452076395e+00  -6.1275918242983352e+00  -6.7016470881941039e+00  -1.1261905557490849e+01  -8.8285992021438773e+00  -5.5794987608567190e+00  -6.1682250425300689e+00  -5.7291086572789807e+00  -3.3285006426603694e+00  -7.6993062638071352e+00  -5.6404916772837641e+00  -4.2906556329094618e+00  -3.2393021630210379e+00  -2.1899480165145264e+00  -1.1058170479706104e+00  3.6234071661274564e-01  3.5522241684618472e-01  9.4625756539174177e-01  6.7387270936413823e-01  -3.0719700103334890e-01  -1.9908166669385028e+00  -2.9540457933553244e+00  -2.9128284008251417e+00  -5.2755448774377252e+00  -5.6206404943682156e+00  -3.1982217672671149e+00  -4.3912378701046997e+00  -1.2418515721338309e+01  -1.9462716614439870e+01  -1.1489198056171912e+01  -7.1831987459186495e+00  -6.6648729674901457e+00  -4.9247131448146453e+00  -2.4577163219879643e+00  -6.8919171167928521e+00  -1.1818250223934935e+01  -1.4318619092111570e+01  -9.3610900446699326e+00  -5.3279735003435915e+00  -4.9873712739291207e+00  -4.3457691599191044e+00  -2.7965000231385879e+00  -4.5835520399801419e+00  -5.1816790691722643e+00  -2.4281927367479770e+00  -4.9175734435175578e+00  -1.6791418239210418e+00  -2.9619596721809933e+00  -5.8883570782676236e+00  -9.7167103432734248e+00  -1.0301415158952537e+01  -8.1317458145989310e+00  -1.0435635740346534e+01  -7.6176677026005537e+00  -1.5434437472858862e+01  -2.2821729927344364e+01  -1.9244589173563750e+01  -5.2119825340024342e+00  -1.8394423825624116e+01  -2.6573799178278264e+01  -4.7351528354172011e+01  -1.4419299866203119e+01  -8.5565076118404448e+00  -8.1845959209697234e+00  -2.9721526653897264e+01  -3.4604198638258282e+01  -2.0549102724996583e+01  -6.2869453478541082e-01  5.4300687868923987e+00  2.4933826261035263e+00  -9.4331486436150835e-01  -2.4970252284235990e+00  -7.9308822275449042e-01  -5.7026805412225157e+00  -3.5904418569028680e+00  -2.8061119435195039e+00  -3.5545536767967127e+00  -1.1846904279012904e+01  -7.0713447917179177e+00  -9.5021854151351555e+00  -9.3590762298463819e+00  -2.6514817304154246e+00  -1.3711827932511170e+01  -2.7243015469232823e+01  -9.2097830691595313e+00  -1.9922817735591003e+01  -2.0077783358934791e+01  -4.2339319305694527e+00  -1.8080957996020819e+00  -4.1288462089776967e+00  -1.6810458418212114e+01  1.9020590424541892e+00  -2.7008783118889705e+00  -5.7290685938531416e-01  -6.0085811001753067e+00  -1.1449977036154802e+01  -1.0226584956033362e+01  1.5571786292492993e+00  1.7869401479530955e-01  2.0682944075302629e+01  1.0058264330138885e+01  -4.9331748494212881e+00  -5.9331097756078650e+00  -8.8143345065106189e+00  -3.9636560369746361e+00  -1.8242895008510377e+01  -8.4823785338740016e+00  -1.8865651510438440e+01  -2.3035897151775693e+01  -1.6649864574066669e+01  -1.3040787460169728e+01  9.4072158296826824e-01  -2.4135443634614471e+00  -4.8145995749810009e+00  -1.4904781522732455e+00  -1.1424605205866396e+01  2.0317492612123522e-01  3.4971166002610796e+00  2.5125529909697351e+00  -9.3590328599084867e+00  -1.0802138489309431e+01  -2.5572946097627486e+01  -1.3482057204520054e+01  -2.1619072322219942e+01  -1.0071687503239165e+01  -3.8164056703576534e+00  -9.0650868267981721e+00  -5.7151346297039129e+00  -8.4826200033408696e+00  -6.4345945310542696e+00  -3.7428299923986019e+00  -8.4837021823371417e-01  4.3154387614914000e+00  2.0057739944702631e+00  3.2828145735888294e+00  5.0960254932615126e+00  4.7185643444251300e+00  -9.6201382105541994e-02  -1.0265361726147053e+00  -8.6441154192696013e-01  -5.4498930532009593e-01  2.9911263065934418e-01  -3.4551471382749241e+00  2.1836308654087095e+01  2.6686395685749421e+01  2.3160772045521604e+01  1.5914340851414547e+01  2.6340609926873055e+00  -1.3432262990008887e+01  -4.1632739173001205e+01  -2.9000273125635275e+01  -1.5287235173820983e+01  2.9857942090811034e+00  2.2545546303613129e+01  4.9478393626183150e+00  -4.5154506902776195e+00  1.6354055336962108e+00  -5.4775878731503482e+00  -1.6266429050964786e+00  -2.3505263855962317e+00  -2.6835517530072380e+01  -3.9267777990508279e+01  -4.2154894823895411e+01  -2.5230126307283580e+01  8.3784436397466724e+00  3.3549279763896385e+00  1.9315475314685450e+01  9.8692420151410083e+00  -5.6201355053235687e+01  -6.3682490407973638e+01  -6.0381192423760368e+01  -2.5794848594669936e+01  -1.9820780507006432e+01  -4.3086044938822120e+01  -7.2190563211711591e+01  -1.1160237142359120e+00  3.1124413040352672e+00  -4.4958535436933946e+00  -1.6103187768969425e+00  3.9937327260744322e+00  -2.1805462162038425e+00  -1.6150793050808028e+02  -1.2415674932265766e+02  -1.7479024540469720e+02  -1.3403114024908407e+02  3.6604074794919050e+01  1.4307064880468383e+01  3.7139170026378785e+01  -3.9061800343200730e+01  -1.4294111790743180e+01  -1.3744284458767558e+01  -1.8639584470092352e+01  -1.4905931978410313e+01  -2.3310816243655090e+01  -2.1342111349035342e+01  1.0272668412995555e+01  1.6924426574406475e+00  -2.7969030144048901e+00  -4.7180572878859977e+01  -1.9801482199550112e+01  1.3111649037022071e+01  1.5855133633472015e+01  1.7393135615839402e+01  -1.6909050046181139e+01  -1.1144764912598148e+01  -8.6843549053414648e+00  1.9396421776786223e+01  1.7096591876082481e+01  2.6145911451328033e+01  9.9513897067468393e-01  -1.0074935107830074e+00  1.0063015751826112e+00  7.3593607854396854e+00  3.4640830300856212e-01  2.5439182495954324e+00  -1.5665099259150926e+01  -2.2664462453418469e+01  -3.8976869761874582e+01  1.6946730708138449e+00  4.5276964072144308e+00  2.9753471868359229e+00  -1.4071283436325565e+01  -5.7512774158598585e+00  4.0001834291453264e-01  -2.0195855074406868e+01  -3.1552442686260022e+01  -6.4138976778573822e+00  -1.3199883853926062e+01  -1.0683121621072743e+01  -1.7085108207190402e+01  -2.3595890591136619e+01  -7.2908015588719817e+00  2.7000566905340754e+01  4.1932969299517893e+01  1.4803977471127915e+01  -9.2935772634936153e-01  5.1030262738189851e+00  -9.6455714899736344e-01  -4.1594331618736931e+01  -3.8528920107573647e+01  -5.0177448477445367e+01  -1.1272747950375775e+01  -4.2414543240405244e+01  -2.3920933274639765e+01  -1.6893862537390280e+01  -2.1283663332823057e+01  -3.8209472910988261e+01  2.8658354507466978e+01  2.8918871950251361e+00  5.1419381784537537e+00  -4.8471271935463534e+01  -1.1437915082231790e+01  -1.9960720410376108e+01  -1.5043156616233803e+01  -1.6468263095896813e+01  -2.3324415783562042e+01  2.0062204292164449e+01  1.7150035461954008e+01  3.1644582133535067e+01  7.5623028611306958e-02  -6.5603056513149294e-01  -1.5488468643081799e+00  -6.0484443060522697e-01  -7.4332334721010840e+00  -6.4963065986056421e+00  1.6209603788789316e+01  3.2881817439051955e+00  -4.6483974812033813e-01  -9.5081515778149246e+00  -1.9178865986573499e+01  -1.3115751848640620e+01  -9.1782940977425618e+00  -2.8546774112266919e+00  -4.1378173471376041e+00  -1.1936636881528310e+01  -1.5971809562705243e+01  -1.6296726838145776e+01  1.2167449928091427e+01  6.2287868661107293e+00  -1.4277478892469899e+01  -1.1155233021288174e+01  -1.3118389815912682e+01  -5.4180631342297985e+01  -3.7378456429893355e+01  -4.7803641624672636e+01  -1.1549368381473204e+01  -6.6422167542812076e+01  -5.6619332745656280e+01  6.2827724791809434e+00  6.0987652903100020e+00  7.6957913136186091e+00  6.1111929599536401e+00  -3.6715583011844053e+01  -4.4105072005634298e+01  8.5525400964318692e+00  5.1844310496907564e+00  1.0766245112286938e+01  6.5110689875214796e+00  -3.9199207348947125e+00  1.6502172645240861e+01  1.9424214240512580e+01  9.1245874132617324e+00  8.5958443087129304e+00  6.0802301155158656e+00  1.0106779153884752e+01  -6.6900174159840930e+01  -6.0709688911277752e+01  -7.8922507624957404e+01  -5.1552666533612211e+01  -5.8729597995439331e+00  -5.0206876868334502e+00  -7.9123778062918015e+00  1.0714472050078074e+00  -1.3890447024650079e+00  2.8759154286540367e-01  -2.8133625365743274e+01  -3.5370067185681592e+01  -3.5193755224791509e+01  -1.7389534071654125e+00  -5.0379419065637784e+01  -5.4781107691128739e+01  -3.7766674791040813e+01  -3.6368937217223333e+01  -3.9465259844094895e+01  -2.9682148482561882e+01  -2.4497800156565511e+01  -2.4890766089178236e+01  -2.0063200245165440e+01  4.6635304208962538e+01  3.2101122146037568e+01  4.6445600185840092e+01  -4.2093342145357774e+01  -9.3533010931274205e+00  -1.0387831867129840e+01  -9.6135048099713618e+00  -2.9098403012259428e+01  -3.4984107693542526e+01  -3.2668352069224753e+01  1.4749657004819706e+01  2.3953355160450272e+01  -2.7781222981211300e+01  -2.9314125885730459e+01  -3.3005199309361615e+01  -3.0763486208321218e+01  -1.2624545050834339e+01  -3.5640403538378083e+00  -8.9830552809302855e+00  -2.3275572730757240e+01  -3.0892138287677746e+01  2.0033967401152069e+01  -4.0310742388217280e+00  2.2000615126809140e+00  2.4819575085548946e+00  6.8859203073863311e+00  1.9246253027685082e+01  2.2073685503322739e+01  -6.6778913092100822e-01  -2.2625719824299871e+01  -1.4888234385121368e+01  -9.1917551588967648e+00  -1.0889225560371198e+01  -6.0320087929323201e+00  -8.0303499011732953e+00  -2.6959839080713021e+01  -2.0316602234847736e+01  -2.2829866810359697e+01  -6.8366859262999586e+00  -9.2193923753193694e+00  -1.3234940181583029e+01  8.9376470520348299e+00  1.3088228789217629e+01  5.5499887942648423e+00  1.9142710705775818e+00  -1.9056523156875880e+00  -2.3605984096376325e+01  -2.3788405227055577e+01  -1.8642570152954839e+01  -9.1052989634067512e+00  -2.0506193565351101e+01  -9.9036523965674270e+00  -3.9489882594735654e+01  -3.2691433895485879e+01  -1.3736991878630908e+01  -2.9724705726120714e+01  -5.4007574528348257e-01  -3.9997507699433017e+00  -4.5065782617909411e+00  -2.3292913819967460e+01  -2.7295177580486286e+01  -3.3483754368137603e+01  -1.0674460800293311e+01  -4.2865803558464187e+01  -2.1488059589112154e+01  -3.1308426264544241e+01  -7.2674201561471383e+00  -1.5621407383526932e+01  -8.2963986148352511e+00  -7.1442882338062788e+01  -4.5901875203571265e+01  -6.3844343190723485e+01  -8.5095532095172688e-01  3.8557802706274380e-01  -6.4385105766632589e-01  6.9827743512616838e+00  9.2014087772866144e+00  2.9055000274989148e+01  -4.1059706809000680e+00  -3.7222696994603997e+00  -2.