<?xml version="1.0"?>
<VTKFile type="UnstructuredGrid"  version="0.1"  >
<UnstructuredGrid>
<Piece  NumberOfPoints="4041" NumberOfCells="7528">
<Points>
<DataArray  type="Float64"  NumberOfComponents="3"  format="ascii">56818.26305072499 -2506106.549119427 0  42243.18265024776 -2506857.639328673 0  29021.82503270428 -2504261.924403077 0  16550.12421826219 -2499855.084024415 0  4655.032296222308 -2495697.422200306 0  -7261.504300492456 -2494323.621393709 0  -18625.22209185599 -2493319.244519799 0  -29276.70419068305 -2491316.102597814 0  -39371.58555411869 -2489334.610554085 0  -48872.2887625367 -2487148.664179707 0  -56975.1983834749 -2482507.606906727 0  -64856.00389190487 -2478322.793323702 0  -73044.09528138349 -2475914.932075506 0  -80956.89453806292 -2474104.027428716 0  -88297.01099239565 -2471721.028140273 0  -95122.34251075231 -2468979.68610345 0  -102033.0976717825 -2467743.453790383 0  -108667.8585333195 -2467170.433637599 0  -114915.9932325953 -2465984.168528114 0  -120845.1804641294 -2464950.543945178 0  -126578.8706923529 -2464806.636550912 0  -131905.6385080613 -2465871.725308503 0  -137064.687279085 -2466513.84235653 0  -141931.6894689468 -2467114.408289441 0  -146558.2518132151 -2467929.3528441 0  -150981.1782706213 -2468467.119438711 0  -155134.7485423184 -2469150.351715567 0  -159045.2990449393 -2470116.702174883 0  -162783.5633652424 -2470995.874606837 0  -166363.671458142 -2471566.36883454 0  -169791.2094945778 -2472089.92531744 0  -173066.7170363216 -2472372.644023074 0  -176180.8272511644 -2472318.589143077 0  -179127.4549433015 -2471957.228690146 0  -181904.9538427488 -2471408.024018189 0  -184523.0000848745 -2470783.818157519 0  -187005.1824092157 -2470191.610932166 0  -189371.4710935979 -2469697.441393066 0  -191637.2486669229 -2469286.956885205 0  -193813.7840475813 -2468932.72635197 0  -195894.9751436561 -2468622.32397195 0  -197860.5122662469 -2468356.257574914 0  -199699.8496405249 -2468131.239090017 0  -201484.3799547247 -2467852.578310028 0  -203235.1081836333 -2467477.120196301 0  -204148.4039899458 -2468231.328417643 0  -204779.4006070163 -2469477.772737175 0  -206226.3182912302 -2469895.043213626 0  -207209.0484690831 -2471050.353437294 0  -206633.7342709575 -2472198.562901576 0  -206689.2205673746 -2473699.963528 0  -207439.3355646643 -2474578.344737141 0  -208686.077261504 -2475226.075148567 0  -208911.224951669 -2476610.681926033 0  -209786.4032029276 -2477610.304923216 0  -210530.8593792382 -2478701.972600761 0  -211347.3117581898 -2479598.487775704 0  -212436.1994711102 -2480321.158208149 0  -211661.3579813032 -2481227.303558039 0  -212339.4592376566 -2482164.498648201 0  -213368.6786835724 -2482893.361192783 0  -213823.9242874084 -2483849.45466838 0  -213959.3389029546 -2484975.339969706 0  -214654.5105929325 -2485857.893728198 0  -214924.9636302208 -2486897.99052352 0  -215387.1968803907 -2487861.977722809 0  -215850.8935184235 -2488606.845677634 0  -216850.3002300822 -2488718.42607849 0  -217786.1788875306 -2488773.814743428 0  -218655.6596527224 -2488960.510713411 0  -219459.2999881662 -2489050.843080118 0  -220215.8572609511 -2489415.86959818 0  -220949.8949656503 -2489578.990779826 0  -221671.8184129359 -2489638.232601265 0  -222360.8395383537 -2489613.467831609 0  -222996.7344008797 -2489634.843068176 0  -223565.7511683207 -2489892.292788903 0  -224056.7930683517 -2490349.213746534 0  -224487.3350267241 -2490843.9928667 0  -224917.776609416 -2491084.259717198 0  -225385.9512610532 -2490939.6600004 0  -225871.0057115029 -2490692.412192973 0  -226347.6588061106 -2490593.974681439 0  -226807.4764604085 -2490599.669749292 0  -227247.6549526961 -2490611.50259405 0  -227666.4916287626 -2490611.945233863 0  -228063.1258911103 -2490614.649470013 0  -228437.2792766626 -2490619.621715965 0  -228789.0148414041 -2490611.440145575 0  -229118.6979285175 -2490579.661792117 0  -229427.7721220893 -2490551.675512337 0  -229718.2857126026 -2490575.632414152 0  -229992.0195062686 -2490686.778079117 0  -230250.5004979436 -2490869.571547285 0  -230495.0197162354 -2491060.637110347 0  -230726.6693575185 -2491208.220350035 0  -230946.3810285181 -2491273.695406383 0  -231155.1727872346 -2491240.482369016 0  -231354.5763814056 -2491151.916669652 0  -231546.3204437924 -2491058.490694704 0  -231732.1881906295 -2491000.058362073 0  -231914.0081666783 -2491009.477644776 0  -232092.2357485933 -2491100.02032591 0  -232263.9691545902 -2491246.068674924 0  -232425.9547039263 -2491419.407037552 0  -232574.5133449228 -2491597.360932464 0  -232704.8009038861 -2491776.874946281 0  -232810.4395700074 -2491960.360275827 0  -232883.2341085825 -2492150.113137818 0  -232912.9947800571 -2492348.349496039 0  -232888.518304726 -2492556.97189473 0  -232809.3398841225 -2492774.886297886 0  -232684.053466982 -2492998.772055723 0  -232523.4050637269 -2493224.618723386 0  -232341.870709994 -2493446.437774289 0  -232149.8049278373 -2493655.556957558 0  -231926.4623607639 -2493840.270994475 0  -231648.985213168 -2493990.591921999 0  -231333.5089516883 -2494114.232577013 0  -231011.2867655237 -2494226.909041754 0  -230716.5565724511 -2494352.83929517 0  -230448.2156366009 -2494566.308324145 0  -230174.691868224 -2494859.203920859 0  -229854.386277046 -2495099.245907737 0  -229456.0482055206 -2495181.232778375 0  -228998.936468587 -2495162.974046715 0  -228517.5500007842 -2495146.384058104 0  -228039.7566338337 -2495203.170887594 0  -227590.3999753736 -2495397.522350929 0  -227184.981929657 -2495766.19833274 0  -226750.2922870113 -2496024.476637892 0  -226213.5702095754 -2495994.660255382 0  -225600.3011662167 -2496052.877603892 0  -224958.9944484101 -2496261.85032066 0  -224327.7512929673 -2496330.814093316 0  -223631.5812784273 -2496280.649748585 0  -222879.2998883054 -2496301.667794817 0  -222254.9783848506 -2496634.523083093 0  -221626.1319051044 -2497065.090720322 0  -220761.0581340182 -2497211.459477382 0  -219968.5459241767 -2497393.939598728 0  -220203.5455070361 -2497899.480461085 0  -220855.9220298611 -2498603.237242675 0  -221131.2246077028 -2499252.862384938 0  -221774.7122121719 -2499660.862433717 0  -222479.7107982228 -2499760.827055608 0  -223033.1183148655 -2499984.859791101 0  -223490.2596104009 -2500462.200395656 0  -224062.3926326139 -2500600.027660071 0  -224541.1956214423 -2500228.786139573 0  -224949.7350095029 -2499888.083019758 0  -225341.0500730075 -2500225.130315016 0  -225757.1423292761 -2500548.432558256 0  -226180.3939651776 -2500786.080344201 0  -226538.177938963 -2501153.984901021 0  -226773.495284157 -2501569.98568693 0  -227039.0304909855 -2501911.932245616 0  -227468.9595916819 -2502129.814972885 0  -227798.6047508129 -2502389.299855465 0  -227884.9238541838 -2502832.388358992 0  -228126.2989976085 -2503276.196050428 0  -227861.5342855403 -2503623.445554566 0  -227372.9304734626 -2503907.390885711 0  -226957.5853764467 -2504175.647480549 0  -226606.2579015691 -2504483.304832757 0  -226161.0056828749 -2504866.856449728 0  -225815.0711509458 -2505316.314749662 0  -225762.8994468044 -2505806.079859471 0  -225997.7594286802 -2506242.915512673 0  -226398.1360973342 -2506619.148825204 0  -226765.9297719086 -2507036.084494513 0  -226845.4953021393 -2507500.960872594 0  -226465.0153921999 -2507962.631785552 0  -225845.8228635425 -2508243.541008709 0  -225251.6156104354 -2508190.021993677 0  -224690.1793840567 -2507897.641923884 0  -224100.3548492745 -2507553.624348171 0  -223414.5727227449 -2507371.21363621 0  -222654.4265297953 -2507276.075847208 0  -221912.0382560525 -2507297.337862614 0  -221266.9189332082 -2507785.266418245 0  -220681.0921292723 -2508353.609471263 0  -220062.6686429494 -2509000.329523423 0  -219236.8308144344 -2509174.655190252 0  -218255.6568359406 -2509399.603364403 0  -218572.4131759723 -2510066.725015923 0  -218861.5230561548 -2510964.91864626 0  -218883.3556157417 -2511846.204517832 0  -219353.8346553762 -2512525.731451487 0  -219963.2685976659 -2513082.42119797 0  -220488.7752431028 -2513679.96717993 0  -220885.2380172826 -2514382.263808274 0  -220990.1132767769 -2515108.665935786 0  -221485.0382534687 -2515632.998891791 0  -222155.0186764667 -2516036.139659067 0  -222390.5819874348 -2516597.550678985 0  -221683.5075769027 -2517109.541916781 0  -221049.1691573458 -2517587.936233334 0  -220341.3916149238 -2518020.204995572 0  -219495.2331410376 -2518369.688367899 0  -219546.7035698217 -2519131.218151119 0  -219685.2088385221 -2520038.091014113 0  -219723.4857113709 -2520890.499102236 0  -219511.8253665795 -2521706.050384868 0  -218768.9497051224 -2522318.273173176 0  -218062.3835558011 -2522951.471679174 0  -217792.1932780886 -2523832.754628343 0  -217721.1829300973 -2524802.156087346 0  -217105.5823664274 -2525632.89503949 0  -216114.3489158486 -2526130.198485046 0  -215762.8823642595 -2526977.667966621 0  -215624.0210213385 -2528047.606007989 0  -215626.57696477 -2529136.754249504 0  -215068.1955778405 -2530004.876344503 0  -214353.5819060722 -2530902.512838067 0  -213458.5631825881 -2531647.245829566 0  -212582.3066935458 -2532532.655828057 0  -211601.1993616105 -2533281.698502241 0  -210230.8203599756 -2533492.702960313 0  -209359.9819486135 -2532733.353591639 0  -207963.7301089823 -2532402.039407601 0  -207461.9620998055 -2533726.636299287 0  -206743.678788939 -2535012.373417936 0  -207794.6479248811 -2535697.474151645 0  -208706.2824926935 -2536681.47128792 0  -208662.8240783605 -2538140.018106792 0  -209359.9957095342 -2539157.350742796 0  -209716.6789857079 -2540401.743356431 0  -208811.4519281083 -2541468.645140812 0  -209077.7529802741 -2542648.334750617 0  -210420.4603172865 -2542562.067677911 0  -211621.9917404423 -2542541.993928391 0  -212754.33587808 -2543120.703356035 0  -212519.6312691136 -2544241.062718421 0  -213084.8685374894 -2545195.129669076 0  -214049.5779914909 -2545637.606566725 0  -215070.0904746166 -2545977.323497721 0  -215634.1102203288 -2546825.493334641 0  -215621.16885731 -2547930.190942091 0  -214942.2606588054 -2548830.648553029 0  -
[...]
<CellData  Scalars="f_309"> 
<DataArray  type="Float64"  Name="f_309"  format="ascii">-6.4952091654550594e+00   -4.0108754744895396e+00   -4.0772316373788570e+01   -3.6965600961463984e+01   1.0864967851192212e+01   1.4780236689374370e+01   -6.5517114935946026e+01   -3.1900823233837283e+01   -7.7834427598902423e+01   -2.1097049926441787e+01   3.4258670163851845e+00   -3.1682114496865310e-02   -1.5221168582181718e+02   -1.3956951635579662e+02   3.2031981986402769e+01   -2.6041462298227518e+01   -1.9299809773524775e+01   -2.0254949050124495e+01   5.2384541076779079e-01   -1.9341858215550456e+01   -3.1879628335819856e+01   1.4667481054398028e+01   -1.2130465897720415e+01   2.2065867766288065e+01   4.4820451042189513e-01   5.7752624108445283e-02   9.8581389209655382e-02   -1.8688326400393205e+01   3.6851146063379900e+00   3.2004276604083897e+00   -7.9823766127154858e+00   -8.6466313290412238e+00   -1.1932927872980059e+01   -7.2855002149261754e+00   -1.6805112049497826e+01   9.7623217883611630e+00   2.9657462175084731e+01   1.0799134601658005e+00   -4.3970695006374072e+01   -3.3664073725000563e+01   -2.7366238732421895e+01   -2.0888208615906612e-01   2.3171261004473509e+00   2.9612519837834217e+00   -4.6239250916437598e+01   -1.5438518480239010e+01   -1.5916333244954934e+01   -1.6474350827750516e+01   2.4035019244957937e+01   2.2750266006575465e-01   8.0024325120732009e-01   4.1276603481607305e-01   6.7786718922577505e-01   -5.8203808490717206e+00   6.3666455716511532e+00   -1.7537239444663310e+01   -1.0569433462254851e+01   -6.3908920434342757e+00   -1.0835483458591392e+01   1.2458171089714476e+01   -1.5612825462675399e+01   -7.4687520474863800e-01   -4.4995627096819646e+01   -9.2510286906100649e+00   -3.9362720274096525e+01   7.4405635783142365e+00   6.1921836385574300e+00   -3.2060252027323614e+01   -4.3256786527332089e+01   8.2971892432240928e+00   8.1250529850102833e+00   -2.9012029245384383e+00   8.2751928084082653e+00   1.5233430010470059e+01   8.2793165206339445e+00   -3.4702362661571584e+01   -6.9052167748797302e+01   -5.6481435035206848e+00   -3.5435309201611487e+00   -3.2817928114315059e+01   -3.7107430280136215e+00   -6.1001397943260002e+01   -4.0333308299511835e+01   -2.6355060045221155e+01   -2.3203418663481091e+01   4.2741749717218376e+01   -4.2792295019199955e+01   -1.1882200175328535e+01   -3.2544545537686389e+01   1.9806872544452077e+01   -3.1794612458881314e+01   -3.7629420715220860e+01   -7.7675935369885227e+00   -3.0672036245348821e+01   2.0542797259282590e+01   6.3387401641445795e-01   1.6063466109792063e+01   2.7806438423555035e-01   -1.5379238344069973e+01   -1.3262401636369919e+01   -7.7755186009250110e+00   -2.4827247251340044e+01   -2.5260882124152200e+01   -7.8367816911135693e+00   -6.8364049222471035e+00   -9.2791034974974558e+00   6.9920749814016592e+00   2.7879757410728789e+00   6.2327687437333541e+00   -2.2093220797853711e+01   -1.5162511873716776e+01   -4.1825298050883070e+01   -3.8050948961378950e+01   -1.2386110428482764e+01   -5.1785751879674882e+00   2.3439788167134523e-01   -2.9167678853269738e+01   -2.0877438846883415e+01   -3.0831617208485916e+01   -3.2557084806576086e+01   -9.0052082900955490e+00   -5.8099041045821934e+01   -5.0285581006697818e+01   5.8738137930811574e-01   1.5870138169397855e+01   -2.8922720898492078e+00   6.5692585818871834e+00   -1.4468317207204871e+02   -6.0112057049131362e+00   -5.9971286140979245e+00   -2.6490904685551455e+00   -2.4254931644264648e+00   -1.4478293006970985e+01   -6.2479512482071840e+01   4.1456634685826629e+01   5.8386781014371767e+00   3.7262118478748377e+01   -5.1597016641696438e+00   -3.3280653517889074e+00   6.8887480507529180e+00   -6.6678168220770388e+01   -6.0261134122008556e+01   -1.2819548617816121e+01   -1.7515171356586109e+01   7.7412599158152240e+00   -7.8573344648246604e+01   -8.4829750922782551e+01   -9.8991571444701396e+00   -1.2049985590293907e+01   4.4272572789137161e+00   -4.1227459091468013e+01   -9.8297786375993326e+00   1.2704564433942056e-01   2.2282829148246606e+00   -1.4651430779774557e+01   -3.8734690478010080e+01   -5.9678661843898304e+00   -2.9369142267146016e+00   5.7305304200639142e+00   4.5512348153806377e+00   -3.7515608699818060e+01   9.1160247994421084e+00   -4.3681189865735462e+01   6.2774876155793375e+00   1.5930343873071584e+00   5.1067957465403204e+01   5.6015050654083673e+01   -3.9100786210577255e+01   -4.2897123869890663e+01   -1.3966604803797336e+01   -9.2369476946940701e+00   -5.1122582736925125e+01   -4.9496160607008065e+01   -1.0485664609486465e+01   -3.1671111435066135e+00   5.0730934930788258e+00   -1.4967974749284739e+01   -1.0106853344125264e+02   -3.0212080751534529e+01   -8.9027826179407406e+00   -7.0384581126238794e+00   -8.6289931610607482e+00   -1.5665370239255621e+01   -5.8519703325070562e+00   -5.0409389886205460e+00   -9.1679843280165105e+00   -1.0436189338904828e+01   1.4127228908539895e+01   3.5562080654961399e+00   1.2051490396158258e+01   -3.5095952039611667e+01   -4.3516364617953549e+00   -4.1826729415984019e+01   4.6285398378362785e+01   -2.4226265657411883e+00   3.9247513495486153e+01   -8.1124379945120381e+01   -8.3919918319563891e+00   -3.5808827587857976e+00   7.2790763831273235e+00   6.5038400498631050e+00   -1.2714183060987752e+01   -5.7630151109769079e+00   -6.2990330023455066e-01   5.5494779768355453e+00   -2.0628485143714261e+01   2.0282748648105127e+00   -1.5230951629817906e+02   -3.7264185493890110e+01   -1.1982110737794098e+01   5.1692511440909783e-01   -4.2014745720970366e+00   -2.3035386130516351e+01   -2.4862434311502383e+01   -6.1060835014596337e+00   -6.5677809854768352e+00   -1.0626595821862386e+01   9.6558217613972275e+00   -4.9122598333665710e+00   -1.0721469738523407e+01   -5.7243698256562674e+01   -1.5939527270093706e+01   -4.3958244941244562e-05   -1.7655896598176213e+00   8.9678439132833407e+00   -2.7407637313559633e+01   -5.1726241587060642e+00   -2.6315805406415453e+01   1.0445227666843584e+00   -6.5759823917950442e+00   -1.5681829561567632e+01   -2.3462336055524311e+01   -1.5338653906529375e+01   -3.4898406169459708e+00   -2.3062634168369584e+01   -2.2371333483910295e+01   -2.0870416760914473e+01   3.9884992004426412e+00   1.3766264173862089e+01   -3.1027956767684319e+00   -4.0936990514086768e-01   5.3357352002150137e+01   5.2934267494626809e+01   -4.2790647763939860e-01   1.6638360614422695e+01   -4.7177968307472939e+00   -2.0665268159274657e+00   -4.9100863396656980e+00   -4.7504261398309211e+00   -7.5285612708806227e+00   -6.6617469330588950e+00   -1.3710671707317550e+01   -1.7850861993792314e+01   -1.3487314900958301e+01   -1.2238887031917489e+01   -1.5477330534480178e+01   -8.6955438207414328e+00   -2.3593720122080590e+01   -4.8578951843164244e+00   -2.8423559511036594e+00   -7.2818816009811513e+00   -1.0443268458243175e+01   -7.8043520990974997e+00   -1.2110326781086803e+01   -5.1676652083391119e+01   -1.7089928967948778e+00   3.5304293074610271e-01   -1.2212848462944921e+01   -1.3810951827200888e+01   -1.8925614104424819e+00   -1.6731583174411739e+01   -1.6563480362263405e+01   6.0304839302379349e+00   -3.3649478254796747e+00   -1.1606469583334590e+01   -1.6016174923668309e+00   1.6661889428429599e-01   4.9317662822402630e-01   1.2236338845626898e+01   -5.0458903523099480e+01   -8.9694329481566832e+00   -7.9209886838252332e+00   -9.8587038058004470e+00   -4.3531875017806911e+01   -2.0283752184640658e+01   -4.9876777289690118e+01   -1.2758032397059440e+00   -4.3936940710351081e+01   -2.5073998082662996e+01   -2.2971052009061936e+00   -1.8381392133991415e+01   -5.0070335779253590e+00   -2.8353723065580150e+00   5.4608207616772319e+01   4.9279858690082349e+01   5.2356485068944949e+01   -1.6934265263317232e+00   3.5471117844617140e+01   -1.0074764154949966e+01   -3.8627223750325513e+01   -1.3151806909809640e+01   -2.7532187334870958e+01   -2.0118580443417528e+01   -3.4399819073783959e+01   2.2206071093152090e+01   -1.6282971350029008e+01   -1.6309038331075353e+01   -4.9134468878564377e+01   4.7817469683570391e+00   5.7972924870075042e+00   -1.9827789021675951e+01   1.2359074621806243e+00   -5.6188302056877127e+01   1.8669503381337837e+01   2.3694159403804496e+00   -6.3545746367084881e+01   -2.2066487082191877e+01   -3.3876476957248130e+01   3.0058006746256691e+01   5.2591074594718947e+01   1.1729983647532038e+00   -6.8410184170672096e+01   -5.4303535220124942e+01   -1.2991817991679502e+01   3.4590623049676523e+01   3.4613788092633435e+01   3.3176380671774496e+01   3.3395333001773857e+01   -6.1752673172537671e+00   1.9190349382822891e+01   -6.4390444146714827e+01   -1.7637692673843883e+01   2.8449665223051603e+01   2.7357914045679841e+01   -8.3552947044247347e+01   -7.2416434903447495e+01   -1.6409134777323391e+01   -6.4256062535586889e+00   2.6106902811059925e+01   2.3423745757049833e+01   4.9096750785763490e+00   -6.3773278018245594e-01   -2.2646453706546184e+00   -1.5767531123427072e+00   -2.3415429387366054e+01   -1.1796432292360817e+02   9.1278945902632658e-01   -2.8374312066850468e+01   -3.0445698108111738e+01   2.2851503734644069e+01   2.0043348414497274e+01   1.0586348217373374e+01   -1.0267419441205293e+01   2.0842851818590962e+01   3.0510454204917437e+01   -3.4682850417129845e+00   -2.2453877376724197e+01   -7.0540298119119322e+00   1.1902967567814308e+01   -5.6306139220799324e+01   -4.1014330130627776e+01   -2.3966865532937796e+01   -1.7571355293822780e+01   -1.3034023828765472e+01   -2.6011060649340187e+01   1.8864205123528530e+00   -1.7987646160160839e+01   -1.6090962131614607e+01   -4.9858495818316442e+01   -4.4907433029524086e+01   -6.2442324688147286e+00   -9.8269356501195082e-01   -3.5490373150951584e+01   -4.2659796545854299e+01   -3.8396255640808654e+01   -2.3673409564826489e+01   -7.9982855986738928e+00   -2.7194094563190863e-01   -1.7134431028981961e+01   -2.0920436069272348e+01   -2.0836229720416146e+01   -3.8700282944974248e+01   2.7328181633402120e+00   -7.2329474980629058e+00   1.4928658044674346e+01   9.1591663234966099e+00   -4.0146995106128927e+01   -2.6435370409335874e+00   -5.8627770789517577e+01   6.3803048411153140e-01   -6.5436540381205219e+00   -7.2672671781054206e+01   -7.9252240590284146e+01   -2.3263405837597979e+01   -2.2668049999141239e+01   -3.4848011414858824e+01   -3.2327746088382710e+01   -2.5322329707089501e+01   -6.0198994139007054e+00   -2.2525476358053837e+01   8.5165405178277389e+00   6.4972430954972626e+00   6.1864780789475695e+00   1.1227471737172150e+01   -4.1129582920206552e+01   -3.7291926717229146e+01   -5.1517769702116134e+01   -5.1572095509014147e+01   2.4693474171998584e+01   -5.6381884154955761e+00   -1.9101809240035930e+00   -8.4648290427894750e+00   -6.1126701467028832e+00   -5.9320376044831331e+00   -8.8671496526116584e+00   -3.9900934971880178e+00   -1.3441419915458502e+01   -1.3952354864379270e+01   4.6414116299300147e+01   5.4625351868693201e+01   -2.1268319515964325e+00   3.5556832654787147e+00   -1.2134233754175442e+01   4.3889794742986794e+00   4.3541038074536846e+00   -1.2573342247076001e+01   -3.1227964417952827e+00   -6.5062452063106564e+00   -7.6564338174703712e+00   -1.0546748186959467e+00   -7.3271049431984892e+01   5.7860368305842806e+00   -3.5713561981464310e+00   -3.3067042049559152e+00   -5.0831664382877042e+00   5.7545915048446616e+01   -4.4189968059210045e+00   -1.3141119467994132e+01   -9.6449321594515194e+00   -9.9130913494285977e+00   -6.8133717543680676e+00   2.3825505820389448e+00   9.0102252893923984e-02   1.3618790168120320e+01   1.9622541736660470e+01   -1.3072339850596368e+01   -1.2569744262402427e+01   -1.6456959393937858e+01   -9.4450528333130706e+00   -2.1546935281653067e+01   -7.3725760168372112e+00   -2.2033572259630567e+01   -3.0921438873885524e+01   -1.3621279187920956e+00   -1.7107536568934361e+01   5.3651876255536246e+00   -1.8065143507068811e+01   -2.5038570466588560e+01   1.3438083448733649e+00   -7.4217521884739002e+00   -7.3067689025935749e+01   -1.7888549528051762e+01   -6.0519988542072101e+00   -2.4477420943099709e+01   -2.3707936928880837e+01   5.6315009915963650e+00   1.3634787793057035e+00   9.0835419978199763e+00   2.5226538431372694e+00   -1.0372038088060673e+01   -4.7969009532589524e+01   -3.2810559490676489e+01   2.2043256271491876e+00   -3.6511480892088670e+01   1.9594576097956968e+00   1.9407776975778868e+00   6.1766583441260572e+00   6.6987082183349909e+00   -3.0463891107224178e+01   -1.1259579153715704e+01   -1.6889845069174130e+00   -4.0034656104787549e+00   5.2235239290029867e+01   -9.6676686598202011e+00   -1.9165771651295991e+01   2.4147128606344953e+01   5.9159845817990487e+01   5.7392644991868281e+01   -1.4283815237576464e+01   -1.2167293389157914e+01   -1.3645001847039438e+01   -5.0449157796432125e+01   -4.7283503853348556e+01   -1.9716268317955059e+01   -1.3865082936614076e+01   -3.6910333652132206e+00   4.9482715386778784e+00   -4.8942125887458614e+00   -1.0583679706388841e+01   2.2385914773452789e+01   2.4216642495176554e+01   -2.8061572457261703e+00   -8.9924911893475983e+00   3.0010218198108124e+01   -6.3569950603414229e+00   -5.2070872262530434e+00   -4.8775469074513831e+00   -1.1813929323272408e+01   -6.5220265376707323e+00   -2.8110837356679141e+01   -3.0413841124388433e+01   -8.2153731971283946e+01   1.6263195584911414e+00   3.7491772391729249e+01   1.7374408706891153e+01   2.0549703035524711e+01   5.4927056821479052e+00   -7.9468022152578577e+00   3.5581400694566767e+01   -2.1745799093344694e+01   1.1465075722192481e+01   -1.8236161051925404e+01   9.3339357202169424e+00   4.8724040574848315e+00   5.6057551593139747e+00   -1.1963203166072939e+01   -3.0057554817356763e+01   -5.7748402551628883e+00   -1.2851345737046296e+00   1.4328640222013860e+01   9.4751785074425010e-01   1.2439470615661470e+01   -4.8217054381864575e+00   -1.2363602317123096e+01   -1.1748593667220913e+01   -2.8648317615614399e+01   -1.2846754780191864e+01   -4.9672068955208865e-01   2.8783952270406076e+01   2.9810952573660810e+01   -2.0949010229554986e+01   -1.2741072096689390e+01   -4.6932420986816147e+01   2.9828463711787503e+00   -1.6777641243513660e+01   -2.0306705737458060e+01   2.7277486512379037e+00   -2.4744459179007459e+00   1.2279214981874587e+01   6.2128361967908576e+00   2.2426315285298082e+00   5.9119176256191004e+00   -3.3856561586956751e+01   -4.0056856337580506e+01   -4.2670928991186038e+01   -6.2399731882235116e+01   -1.5866947733334381e+01   -3.8190594929663924e+01   -3.4112051974473893e+01   -3.6304278842899492e+01   -3.4427212374511100e+01   4.2324060338471824e+01   2.4106621162449159e+01   -1.0400960797996895e+01   -2.0169134605577845e+00   1.6709391318768199e+00   -4.4858330507077238e-01   1.1167099287945845e+01   1.1106109177380945e+01   1.4877067455019320e+01   -2.4647881397442866e+01   -2.2085565975058479e+01   -9.9022691795243762e+00   -8.2018280775016166e+00   -9.2176542262168315e+00   -5.5013135575113177e+00   -6.8255418469591884e+00   -3.2374957646932470e+00   -5.3957143744072390e+01   9.5791272296189600e+00   -4.5297007072630564e+01   1.9555692326258312e+00   -1.2949847131874780e+01   -1.0038181547600686e+01   8.2603217918826122e+00   2.1436012980309535e+01   1.3287900765236684e+00   1.2578194255782794e+01   -4.2455881074887678e+00   -5.5786574473242894e+00   -3.1562733985034139e+00   -2.7575481031086781e+01   4.6050828409526083e+00   -2.5026944921992584e+01   8.1336156344521680e+00   -1.5525554325830457e+01   -2.0142746995325719e+01   -3.8805463284190971e+01   -4.4276481060892088e+01   -4.2388272092678442e+01   -1.3647604820452813e+01   -1.9508308444425509e+01   -6.7732191089193927e+00   3.4736399571451592e+01   -1.6244361601085728e+00   -1.2883186761272212e+01   -1.1621660242890487e+01   -3.9240377154578532e+00   -2.0517129157680873e+01   -3.3488558893262322e+01   -2.8544023633663951e+01   -3.3182614147049129e+01   -3.1512058389822304e+01   -5.6181057257372649e+00   -9.4262164817859748e+00   1.3491270792964917e+01   -4.9387264474956272e+00   -3.5804060900926487e+01   -4.7983096805744445e+01   -1.6342241121209904e+02   -1.6538704725928532e+01   -2.4458806516963360e+01   1.1799601410335823e+01   -3.4481844408438725e+01   -2.7741821298108718e+01   -3.9271318926281488e+01   -1.7296256976745184e+01   -1.4799683475663894e+01   -6.0176528322146517e+01   -3.3617896997308669e+01   -7.1456606181664668e+01   -4.5735672238451066e+00   -7.7011169386024987e+00   2.6354400013004554e+01   -1.2512603621539389e+01   -4.0997122697632875e+00   -4.0640639109959800e+00   -4.3880652698305234e+00   -5.7026297773180090e+01   -1.0191500583607386e+01   -5.0832789659319335e+00   -6.6647232740284670e+00   -1.1814690212886271e+01   1.9095653429615196e+00   -9.7711539328809351e+00   -1.8389164022573175e+02   -8.2088563305057001e+00   -1.9295284747216385e+01   -1.7208229945293471e+02   1.0709700019782776e+01   6.4253102292129514e+00   -3.8449739487362784e+00   -6.2682344504856990e+00   1.1147633580869703e+01   -1.3347989096434361e+01   -2.3491671505814544e+00   -1.6302379382963070e+00   7.9002861313503647e+00   -7.6065228499437039e+00   -2.0719143680634087e+01   7.8576373544048472e+00   -1.5195104832181272e+00   -2.1592891015943131e+01   2.1274473749481011e+01   2.1345696827187904e+01   1.9213975619330377e+01   8.5217847602074137e+00   1.5049548987211217e+01   1.0455945123035377e+00   3.2656456321646492e+00   -2.3141308085564329e+01   -2.3375540927199363e+01   -6.8673834980891844e+00   -2.5668607604717824e+01   -1.0298436772901756e+01   7.5561879891688601e+00   5.6615161930090956e+00   -2.1128705629901994e+01   -9.0119122017631966e+01   -1.4329945504196206e+02   -1.5218703072484011e+01   2.4042763356780839e+00   -2.6825433004216283e+01   -2.3441403919032325e+01   2.5958930654319068e+00   9.9510760889057774e+00   8.5061409820452862e+00   -1.3726703939871388e+01   -1.7242440457879862e+01   9.6712474623141738e+00   -1.0176450052519247e+01   -8.3826873641091098e+00   -1.6552828685280431e+01   -9.8609589006579679e+00   -2.4842271413849208e+01   -1.2299976663807623e+01   2.0525095199484877e+01   -5.7833253582744595e+00   -3.6699006622252477e+00   -6.8803757109579866e+00   -1.0194356677538593e+01   -1.2596813231616083e+02   9.5392359376095932e+00   -1.0498899546944260e+01   1.1559789053313034e+01   -9.2004473802104528e+01   9.1101351951752942e+00   -3.3229102599757731e+01   -3.9523954561529436e+01   -8.9697019125789907e+00   -4.9914460385159245e+00   2.0305194941912923e+01   9.2469421860510543e+00   -1.7302988291986662e+01   -2.1828308163161569e+01   1.2163112807661525e+01   9.8972753672365279e+00   -9.3619908268361378e+00   7.5713100766785457e+00   -3.3059166588127695e+01   -5.2699177105650641e+01   -5.5771583230267069e+01   -3.8677615420941507e+01   -5.6601191628901766e+01   -5.1978860417135039e+01   -2.0070486714209565e+01   -1.6490587606364020e+01   -4.1415184526697061e+01   -4.1992388671224127e+01   -1.7589725485239619e+01   -2.5533451088773527e+00   -3.2639275288146914e+00   3.1411212972836271e+00   -1.5595942599382891e+01   -2.8719755374734710e+01   -2.6757944486228659e+01   -2.7468277900773529e+01   -2.8137746112154868e+01   3.9476279415126598e+01   -2.5560419425114993e+01   -3.0179586989681923e+01   -1.8551006588872390e+01   -2.1588356163568701e+01   -7.3336997000908140e+00   -2.8451406685956165e+01   -9.9463471673790522e+00   -3.7872234011059036e+00   1.9808387253909750e+01   -2.2943156802321305e+01   -2.6397534836838673e+01   -9.3625525230874786e+01   -2.9243323542464321e+01   -1.5008690965344630e+02   -1.2933375099733703e+02   -1.1188187946569677e+01   -5.6526982102542584e+00   -7.0277879341585363e+00   -5.0041345307348646e+00   1.0160812107951532e+01   -5.0742567744825502e+00   -1.8379567902064998e+01   -3.3498035507107659e+01   -2.2295815121009088e+00   -2.7027365067203308e+00   1.6967110956469655e+00   6.4204597981853810e+00   -9.1981496594930832e+00   -4.3197327326983936e+00   -1.3883136714720983e+01   -6.3788067580249468e+00   -3.1028460747242061e+01   -5.7185430863207776e+00   -1.5861105458923364e+01   -1.7552962814707072e+02   -1.67163848002896